     8
     1      1
   17.417542589223   -0.000000000000   -0.000000000000
   -0.000000000000   17.417542589223   -0.000000000000
   -0.000000000000   -0.000000000000   17.417542589223
     1      2
    1.099117527784   -0.000000000000   -0.000000000000
    0.000000000000   -0.274724028043   -0.000000000000
    0.000000000000   -0.000000000000   -0.274724028043
     1      3
   -0.274724028043    0.000000000000   -0.000000000000
   -0.000000000000    1.099117527784   -0.000000000000
   -0.000000000000    0.000000000000   -0.274724028043
     1      4
   -0.274724028043   -0.000000000000    0.000000000000
   -0.000000000000   -0.274724028043    0.000000000000
   -0.000000000000   -0.000000000000    1.099117527784
     1      5
   -4.491803015230   -2.807550244733   -2.807550244733
   -2.807550244733   -4.491803015230   -2.807550244733
   -2.807550244733   -2.807550244733   -4.491803015230
     1      6
   -4.491803015230    2.807550244733    2.807550244733
    2.807550244733   -4.491803015230   -2.807550244733
    2.807550244733   -2.807550244733   -4.491803015230
     1      7
   -4.491803015230    2.807550244733   -2.807550244733
    2.807550244733   -4.491803015230    2.807550244733
   -2.807550244733    2.807550244733   -4.491803015230
     1      8
   -4.491803015230   -2.807550244733    2.807550244733
   -2.807550244733   -4.491803015230    2.807550244733
    2.807550244733    2.807550244733   -4.491803015230
     2      1
    1.099117527784    0.000000000000    0.000000000000
   -0.000000000000   -0.274724028043   -0.000000000000
   -0.000000000000   -0.000000000000   -0.274724028043
     2      2
   17.417542589223    0.000000000000    0.000000000000
    0.000000000000   17.417542589223   -0.000000000000
    0.000000000000   -0.000000000000   17.417542589223
     2      3
   -0.274724028043    0.000000000000   -0.000000000000
    0.000000000000   -0.274724028043    0.000000000000
    0.000000000000   -0.000000000000    1.099117527784
     2      4
   -0.274724028043   -0.000000000000    0.000000000000
    0.000000000000    1.099117527784   -0.000000000000
    0.000000000000    0.000000000000   -0.274724028043
     2      5
   -4.491803015230    2.807550244733    2.807550244733
    2.807550244733   -4.491803015230   -2.807550244733
    2.807550244733   -2.807550244733   -4.491803015230
     2      6
   -4.491803015230   -2.807550244733   -2.807550244733
   -2.807550244733   -4.491803015230   -2.807550244733
   -2.807550244733   -2.807550244733   -4.491803015230
     2      7
   -4.491803015230   -2.807550244733    2.807550244733
   -2.807550244733   -4.491803015230    2.807550244733
    2.807550244733    2.807550244733   -4.491803015230
     2      8
   -4.491803015230    2.807550244733   -2.807550244733
    2.807550244733   -4.491803015230    2.807550244733
   -2.807550244733    2.807550244733   -4.491803015230
     3      1
   -0.274724028043   -0.000000000000   -0.000000000000
    0.000000000000    1.099117527784    0.000000000000
   -0.000000000000   -0.000000000000   -0.274724028043
     3      2
   -0.274724028043    0.000000000000    0.000000000000
    0.000000000000   -0.274724028043   -0.000000000000
   -0.000000000000    0.000000000000    1.099117527784
     3      3
   17.417542589223    0.000000000000   -0.000000000000
    0.000000000000   17.417542589223    0.000000000000
   -0.000000000000    0.000000000000   17.417542589223
     3      4
    1.099117527784    0.000000000000   -0.000000000000
   -0.000000000000   -0.274724028043    0.000000000000
    0.000000000000    0.000000000000   -0.274724028043
     3      5
   -4.491803015230    2.807550244733   -2.807550244733
    2.807550244733   -4.491803015230    2.807550244733
   -2.807550244733    2.807550244733   -4.491803015230
     3      6
   -4.491803015230   -2.807550244733    2.807550244733
   -2.807550244733   -4.491803015230    2.807550244733
    2.807550244733    2.807550244733   -4.491803015230
     3      7
   -4.491803015230   -2.807550244733   -2.807550244733
   -2.807550244733   -4.491803015230   -2.807550244733
   -2.807550244733   -2.807550244733   -4.491803015230
     3      8
   -4.491803015230    2.807550244733    2.807550244733
    2.807550244733   -4.491803015230   -2.807550244733
    2.807550244733   -2.807550244733   -4.491803015230
     4      1
   -0.274724028043   -0.000000000000   -0.000000000000
   -0.000000000000   -0.274724028043   -0.000000000000
    0.000000000000    0.000000000000    1.099117527784
     4      2
   -0.274724028043    0.000000000000    0.000000000000
   -0.000000000000    1.099117527784    0.000000000000
    0.000000000000   -0.000000000000   -0.274724028043
     4      3
    1.099117527784   -0.000000000000    0.000000000000
    0.000000000000   -0.274724028043    0.000000000000
   -0.000000000000    0.000000000000   -0.274724028043
     4      4
   17.417542589223   -0.000000000000    0.000000000000
   -0.000000000000   17.417542589223    0.000000000000
    0.000000000000    0.000000000000   17.417542589223
     4      5
   -4.491803015230   -2.807550244733    2.807550244733
   -2.807550244733   -4.491803015230    2.807550244733
    2.807550244733    2.807550244733   -4.491803015230
     4      6
   -4.491803015230    2.807550244733   -2.807550244733
    2.807550244733   -4.491803015230    2.807550244733
   -2.807550244733    2.807550244733   -4.491803015230
     4      7
   -4.491803015230    2.807550244733    2.807550244733
    2.807550244733   -4.491803015230   -2.807550244733
    2.807550244733   -2.807550244733   -4.491803015230
     4      8
   -4.491803015230   -2.807550244733   -2.807550244733
   -2.807550244733   -4.491803015230   -2.807550244733
   -2.807550244733   -2.807550244733   -4.491803015230
     5      1
   -4.491803015230   -2.807550244733   -2.807550244733
   -2.807550244733   -4.491803015230   -2.807550244733
   -2.807550244733   -2.807550244733   -4.491803015230
     5      2
   -4.491803015230    2.807550244733    2.807550244733
    2.807550244733   -4.491803015230   -2.807550244733
    2.807550244733   -2.807550244733   -4.491803015230
     5      3
   -4.491803015230    2.807550244733   -2.807550244733
    2.807550244733   -4.491803015230    2.807550244733
   -2.807550244733    2.807550244733   -4.491803015230
     5      4
   -4.491803015230   -2.807550244733    2.807550244733
   -2.807550244733   -4.491803015230    2.807550244733
    2.807550244733    2.807550244733   -4.491803015230
     5      5
   17.417542589223   -0.000000000000    0.000000000000
   -0.000000000000   17.417542589223    0.000000000000
    0.000000000000    0.000000000000   17.417542589223
     5      6
    1.099117527784   -0.000000000000   -0.000000000000
    0.000000000000   -0.274724028043   -0.000000000000
    0.000000000000   -0.000000000000   -0.274724028043
     5      7
   -0.274724028043    0.000000000000   -0.000000000000
   -0.000000000000    1.099117527784   -0.000000000000
   -0.000000000000   -0.000000000000   -0.274724028043
     5      8
   -0.274724028043   -0.000000000000    0.000000000000
   -0.000000000000   -0.274724028043   -0.000000000000
   -0.000000000000   -0.000000000000    1.099117527784
     6      1
   -4.491803015230    2.807550244733    2.807550244733
    2.807550244733   -4.491803015230   -2.807550244733
    2.807550244733   -2.807550244733   -4.491803015230
     6      2
   -4.491803015230   -2.807550244733   -2.807550244733
   -2.807550244733   -4.491803015230   -2.807550244733
   -2.807550244733   -2.807550244733   -4.491803015230
     6      3
   -4.491803015230   -2.807550244733    2.807550244733
   -2.807550244733   -4.491803015230    2.807550244733
    2.807550244733    2.807550244733   -4.491803015230
     6      4
   -4.491803015230    2.807550244733   -2.807550244733
    2.807550244733   -4.491803015230    2.807550244733
   -2.807550244733    2.807550244733   -4.491803015230
     6      5
    1.099117527784    0.000000000000    0.000000000000
   -0.000000000000   -0.274724028043   -0.000000000000
   -0.000000000000   -0.000000000000   -0.274724028043
     6      6
   17.417542589223    0.000000000000    0.000000000000
    0.000000000000   17.417542589223    0.000000000000
   -0.000000000000    0.000000000000   17.417542589223
     6      7
   -0.274724028043   -0.000000000000   -0.000000000000
   -0.000000000000   -0.274724028043    0.000000000000
    0.000000000000   -0.000000000000    1.099117527784
     6      8
   -0.274724028043   -0.000000000000   -0.000000000000
    0.000000000000    1.099117527784   -0.000000000000
   -0.000000000000    0.000000000000   -0.274724028043
     7      1
   -4.491803015230    2.807550244733   -2.807550244733
    2.807550244733   -4.491803015230    2.807550244733
   -2.807550244733    2.807550244733   -4.491803015230
     7      2
   -4.491803015230   -2.807550244733    2.807550244733
   -2.807550244733   -4.491803015230    2.807550244733
    2.807550244733    2.807550244733   -4.491803015230
     7      3
   -4.491803015230   -2.807550244733   -2.807550244733
   -2.807550244733   -4.491803015230   -2.807550244733
   -2.807550244733   -2.807550244733   -4.491803015230
     7      4
   -4.491803015230    2.807550244733    2.807550244733
    2.807550244733   -4.491803015230   -2.807550244733
    2.807550244733   -2.807550244733   -4.491803015230
     7      5
   -0.274724028043   -0.000000000000   -0.000000000000
    0.000000000000    1.099117527784   -0.000000000000
   -0.000000000000   -0.000000000000   -0.274724028043
     7      6
   -0.274724028043   -0.000000000000    0.000000000000
   -0.000000000000   -0.274724028043   -0.000000000000
   -0.000000000000    0.000000000000    1.099117527784
     7      7
   17.417542589223   -0.000000000000    0.000000000000
    0.000000000000   17.417542589223   -0.000000000000
    0.000000000000   -0.000000000000   17.417542589223
     7      8
    1.099117527784    0.000000000000   -0.000000000000
   -0.000000000000   -0.274724028043   -0.000000000000
    0.000000000000   -0.000000000000   -0.274724028043
     8      1
   -4.491803015230   -2.807550244733    2.807550244733
   -2.807550244733   -4.491803015230    2.807550244733
    2.807550244733    2.807550244733   -4.491803015230
     8      2
   -4.491803015230    2.807550244733   -2.807550244733
    2.807550244733   -4.491803015230    2.807550244733
   -2.807550244733    2.807550244733   -4.491803015230
     8      3
   -4.491803015230    2.807550244733    2.807550244733
    2.807550244733   -4.491803015230   -2.807550244733
    2.807550244733   -2.807550244733   -4.491803015230
     8      4
   -4.491803015230   -2.807550244733   -2.807550244733
   -2.807550244733   -4.491803015230   -2.807550244733
   -2.807550244733   -2.807550244733   -4.491803015230
     8      5
   -0.274724028043   -0.000000000000   -0.000000000000
   -0.000000000000   -0.274724028043   -0.000000000000
    0.000000000000   -0.000000000000    1.099117527784
     8      6
   -0.274724028043    0.000000000000   -0.000000000000
   -0.000000000000    1.099117527784    0.000000000000
   -0.000000000000   -0.000000000000   -0.274724028043
     8      7
    1.099117527784   -0.000000000000    0.000000000000
    0.000000000000   -0.274724028043   -0.000000000000
   -0.000000000000   -0.000000000000   -0.274724028043
     8      8
   17.417542589223    0.000000000000   -0.000000000000
    0.000000000000   17.417542589223    0.000000000000
    0.000000000000   -0.000000000000   17.417542589223
