********************************************************************************
*                       GENERAL UTILITY LATTICE PROGRAM                        *
*                                 Julian Gale                                  *
*                       Curtin Institute for Computation                       *
*                    School of Molecular and Life Sciences                     *
*                    Curtin University, Western Australia                      *
********************************************************************************
* Version = 5.2.0 * Last modified =  10th September 2020                       *
********************************************************************************
*  optimise     - perform optimisation run                                     *
*  conv         - constant volume calculation                                  *
*  isotropic    - only isotropic cell expansion to be allowed                  *
*  property     - calculate properties for final geometry                      *
*  phonon       - calculate phonons for final geometry                         *
*  thermal      - calculate thermal conductivity for final geometry            *
*  broaden_dos  - broaden density of states curves                             *
********************************************************************************
* ASE calculation                                                              *
********************************************************************************


  Job Started  at 14:37.28  9th September  2021                               

  Number of CPUs =     1

  Host name      = hydra                                   


  Total number of configurations input =      1

********************************************************************************
*  Input for Configuration =   1                                               *
********************************************************************************

  Formula = Si8                                                         

  Number of irreducible atoms/shells =       8


  Total number atoms/shells =       8

  Dimensionality = 3               :  Bulk   



  Cartesian lattice vectors (Angstroms) :

        5.450000    0.000000    0.000000
        0.000000    5.450000    0.000000
        0.000000    0.000000    5.450000

  Cell parameters (Angstroms/Degrees):

  a =       5.4500    alpha =  90.0000
  b =       5.4500    beta  =  90.0000
  c =       5.4500    gamma =  90.0000

  Initial cell volume =         161.878625 Angs**3

  Temperature of configuration =   300.     K 

  Pressure of configuration =         0.000 GPa 

  Fractional coordinates of asymmetric unit :

--------------------------------------------------------------------------------
   No.  Atomic       x           y          z         Charge      Occupancy
        Label      (Frac)      (Frac)     (Frac)        (e)         (Frac)  
--------------------------------------------------------------------------------
      1 Si    c    0.875000    0.875000    0.875000     0.00000    1.000000    
      2 Si    c    0.875000 *  0.375000 *  0.375000 *   0.00000    1.000000    
      3 Si    c    0.375000 *  0.875000 *  0.375000 *   0.00000    1.000000    
      4 Si    c    0.375000 *  0.375000 *  0.875000 *   0.00000    1.000000    
      5 Si    c    0.125000 *  0.125000 *  0.125000 *   0.00000    1.000000    
      6 Si    c    0.125000 *  0.625000 *  0.625000 *   0.00000    1.000000    
      7 Si    c    0.625000 *  0.125000 *  0.625000 *   0.00000    1.000000    
      8 Si    c    0.625000 *  0.625000 *  0.125000 *   0.00000    1.000000    
--------------------------------------------------------------------------------


  Constraints : 

--------------------------------------------------------------------------------
  Constraint no.      Unconstrained     Constrained    Coefficient    Offset
                         Variable         Variable
--------------------------------------------------------------------------------
           1              Strain 1        Strain 2       1.00000      0.0000
           2              Strain 1        Strain 3       1.00000      0.0000
--------------------------------------------------------------------------------

  Brillouin zone sampling points :

--------------------------------------------------------------------------------
  Point number          x          y          z            Weight
--------------------------------------------------------------------------------
        1           0.000000   0.000000   0.000000     1.00000000
--------------------------------------------------------------------------------


********************************************************************************
*  General input information                                                   *
********************************************************************************

  Species output for all configurations : 

--------------------------------------------------------------------------------
  Species    Type    Atomic    Atomic    Charge       Radii (Angs)     Library
                     Number     Mass       (e)     Cova   Ionic  VDW   Symbol
--------------------------------------------------------------------------------
    Si       Core       14      28.09   0.000000   1.200  0.000  2.100          
--------------------------------------------------------------------------------


  Lattice summation method               =    Ewald          (3-D)
                                         =    Parry          (2-D)
                                         =    Saunders et al (1-D)
  Accuracy factor for lattice sums       =   12.000


  Analytic derivatives to be used

  Time limit = Infinity

  Maximum range for interatomic potentials =    100000.000000 Angstroms

  General interatomic potentials :

--------------------------------------------------------------------------------
Atom  Types   Potential      Parameter       Value         Units   Cutoffs(Ang)
  1     2                                                            Min /  Max 
--------------------------------------------------------------------------------
Si   c Si   c Still-Weber 2 SW2 A            15.284982    eV        0.000  3.771
                            SW2 rho          2.0951000    Ang       
                            SW2 B            11.603192    Ang^4     
--------------------------------------------------------------------------------

  General Three-body potentials :

--------------------------------------------------------------------------------
  Atoms       Potential      Parameter       Value         Units   Cutoffs(Ang)
  1 / 2 / 3                                                          Min /  Max 
--------------------------------------------------------------------------------
Si    core    StillingerWeb Three-body cnst  45.532601    eV        0.000  3.771
Si    core                  Three-body angl  109.47000    degrees   0.000  3.771
Si    core                  Three-body rho1  2.5141200    Ang       0.000  7.542
                            Three-body rho2  2.5141200    Ang       
--------------------------------------------------------------------------------

********************************************************************************
*  Output for configuration   1                                                *
********************************************************************************


  Components of energy : 

--------------------------------------------------------------------------------
  Interatomic potentials     =         -34.68592771 eV    
  Three-body potentials      =           0.00000003 eV    
  Monopole - monopole (real) =           0.00000000 eV    
  Monopole - monopole (recip)=           0.00000000 eV    
  Monopole - monopole (total)=           0.00000000 eV    
--------------------------------------------------------------------------------
  Total lattice energy       =         -34.68592769 eV    
--------------------------------------------------------------------------------
  Total lattice energy       =           -3346.6618 kJ/(mole unit cells)
--------------------------------------------------------------------------------


  Number of variables =       21

  Maximum number of calculations  =          1000
  Maximum Hessian update interval =            10
  Maximum step size               =   1.000000000
  Maximum parameter tolerance     =   0.000010000
  Maximum function  tolerance     =   0.000010000
  Maximum gradient  tolerance     =   0.001000000
  Maximum gradient  component     =   0.010000000

  Symmetry not applied to optimisation

  Cell parameters to be optimised using strains

  Newton-Raphson optimiser to be used

  BFGS hessian update to be used

  Lower half triangular hessian to be used

  Start of bulk optimisation :

  Cycle:      0 Energy:       -34.685928  Gnorm:      0.000000  CPU:    0.006

  XYZ File written as gulp.xyz



  **** Optimisation achieved ****


  Final energy =     -34.68592769 eV
  Final Gnorm  =       0.00000000

  Components of energy : 

--------------------------------------------------------------------------------
  Interatomic potentials     =         -34.68592771 eV    
  Three-body potentials      =           0.00000003 eV    
  Monopole - monopole (real) =           0.00000000 eV    
  Monopole - monopole (recip)=           0.00000000 eV    
  Monopole - monopole (total)=           0.00000000 eV    
--------------------------------------------------------------------------------
  Total lattice energy       =         -34.68592769 eV    
--------------------------------------------------------------------------------
  Total lattice energy       =           -3346.6618 kJ/(mole unit cells)
--------------------------------------------------------------------------------

  Final fractional coordinates of atoms :

--------------------------------------------------------------------------------
   No.  Atomic        x           y          z          Radius
        Label       (Frac)      (Frac)     (Frac)       (Angs) 
--------------------------------------------------------------------------------
     1  Si    c     0.875000    0.875000    0.875000    0.000000
     2  Si    c     0.875000    0.375000    0.375000    0.000000
     3  Si    c     0.375000    0.875000    0.375000    0.000000
     4  Si    c     0.375000    0.375000    0.875000    0.000000
     5  Si    c     0.125000    0.125000    0.125000    0.000000
     6  Si    c     0.125000    0.625000    0.625000    0.000000
     7  Si    c     0.625000    0.125000    0.625000    0.000000
     8  Si    c     0.625000    0.625000    0.125000    0.000000
--------------------------------------------------------------------------------

  Final internal derivatives :

--------------------------------------------------------------------------------
   No.  Atomic          a             b             c           Radius
        Label          (eV)          (eV)          (eV)        (eV/Angs)
--------------------------------------------------------------------------------
      1 Si    c       0.000000      0.000000      0.000000      0.000000
      2 Si    c      -0.000000      0.000000      0.000000      0.000000
      3 Si    c       0.000000     -0.000000      0.000000      0.000000
      4 Si    c       0.000000      0.000000     -0.000000      0.000000
      5 Si    c       0.000000      0.000000      0.000000      0.000000
      6 Si    c       0.000000     -0.000000     -0.000000      0.000000
      7 Si    c      -0.000000      0.000000     -0.000000      0.000000
      8 Si    c      -0.000000     -0.000000      0.000000      0.000000
--------------------------------------------------------------------------------
  Maximum abs         0.000000      0.000000      0.000000      0.000000
--------------------------------------------------------------------------------



  Elastic Constant Matrix: (Units=GPa)

-------------------------------------------------------------------------------
  Indices      1         2         3         4         5         6    
-------------------------------------------------------------------------------
       1    149.2519   74.4579   74.4579    0.0000    0.0000    0.0000
       2     74.4579  149.2519   74.4579    0.0000    0.0000    0.0000
       3     74.4579   74.4579  149.2519    0.0000    0.0000    0.0000
       4      0.0000    0.0000    0.0000   56.2261   -0.0000    0.0000
       5      0.0000    0.0000    0.0000   -0.0000   56.2261   -0.0000
       6      0.0000    0.0000    0.0000   -0.0000   -0.0000   56.2261
-------------------------------------------------------------------------------


  Elastic Compliance Matrix: (Units=1/GPa)

-------------------------------------------------------------------------------
  Indices      1         2         3         4         5         6    
-------------------------------------------------------------------------------
       1    0.010031 -0.003339 -0.003339  0.000000 -0.000000 -0.000000
       2   -0.003339  0.010031 -0.003339 -0.000000  0.000000 -0.000000
       3   -0.003339 -0.003339  0.010031 -0.000000 -0.000000  0.000000
       4    0.000000 -0.000000 -0.000000  0.017785  0.000000 -0.000000
       5   -0.000000  0.000000 -0.000000  0.000000  0.017785  0.000000
       6   -0.000000 -0.000000  0.000000  0.000000  0.000000  0.017785
-------------------------------------------------------------------------------

  Mechanical properties :

-------------------------------------------------------------------------------
  Convention :                    Reuss         Voigt         Hill
-------------------------------------------------------------------------------
  Bulk  Modulus (GPa)     =      99.38923      99.38923      99.38923
  Shear Modulus (GPa)     =      46.80062      48.69448      47.74755
-------------------------------------------------------------------------------
  Velocity S-wave (km/s)  =       4.50580       4.59606       4.55115
  Velocity P-wave (km/s)  =       8.37764       8.44277       8.41027
-------------------------------------------------------------------------------
  Compressibility (1/GPa) =    0.01006145
-------------------------------------------------------------------------------
  Stress axis :                     x             y             z
-------------------------------------------------------------------------------
  Youngs Moduli (GPa)     =      99.68791      99.68791      99.68791
-------------------------------------------------------------------------------
  Poissons Ratio (x)      =                     0.33283       0.33283
  Poissons Ratio (y)      =       0.33283                     0.33283
  Poissons Ratio (z)      =       0.33283       0.33283
-------------------------------------------------------------------------------


  Piezoelectric Strain Matrix: (Units=C/m**2)

-------------------------------------------------------------------------------
  Indices      1         2         3         4         5         6    
-------------------------------------------------------------------------------
       x     0.00000   0.00000   0.00000   0.00000   0.00000   0.00000
       y     0.00000   0.00000   0.00000   0.00000   0.00000   0.00000
       z     0.00000   0.00000   0.00000   0.00000   0.00000   0.00000
-------------------------------------------------------------------------------


  Piezoelectric Stress Matrix: (Units=10**-11 C/N)

-------------------------------------------------------------------------------
  Indices      1         2         3         4         5         6    
-------------------------------------------------------------------------------
       x     0.00000   0.00000   0.00000   0.00000   0.00000   0.00000
       y     0.00000   0.00000   0.00000   0.00000   0.00000   0.00000
       z     0.00000   0.00000   0.00000   0.00000   0.00000   0.00000
-------------------------------------------------------------------------------


  Static dielectric constant tensor : 

-------------------------------------------------------------------------------
              x         y         z
-------------------------------------------------------------------------------
       x     1.00000   0.00000   0.00000
       y     0.00000   1.00000   0.00000
       z     0.00000   0.00000   1.00000
--------------------------------------------------------------------------------

  Static refractive indices : 

-------------------------------------------------------------------------------
    1 =    1.00000      2 =    1.00000      3 =    1.00000
-------------------------------------------------------------------------------


  Phonon Calculation : 

  Number of k points for this configuration =        1

--------------------------------------------------------------------------------
  K point      1 =   0.000000  0.000000  0.000000  Weight =    1.000
--------------------------------------------------------------------------------

  Frequencies (cm-1) : 

   -0.00   -0.00    0.00  221.94  221.94  221.94  221.94  221.94  221.94
  429.62  429.62  429.62  429.62  429.62  429.62  516.42  516.42  516.42
  516.42  516.42  516.42  589.80  589.80  589.80


 ixyz:           1
  0.000000000000000E+000  0.000000000000000E+000  0.000000000000000E+000
  0.000000000000000E+000  0.000000000000000E+000  0.000000000000000E+000
  2.665087135698760E-002 -8.616184384773376E-017  7.000649812628367E-017
  2.665087135698760E-002  7.000649812628367E-017 -8.616184384773376E-017
 -0.217874033757599      -0.136179679902043      -0.136179679902043     
 -0.217874033757600       0.136179679902044       0.136179679902044     
  0.217874033757599      -0.136179679902043       0.136179679902043     
  0.217874033757599       0.136179679902043      -0.136179679902043     
  0.000000000000000E+000  0.000000000000000E+000  0.000000000000000E+000
  0.000000000000000E+000  0.000000000000000E+000  0.000000000000000E+000
  8.616184384773376E-017 -0.106624964870440       8.616184384773376E-017
  7.000649812628367E-017  2.665087135698760E-002 -8.616184384773376E-017
 -0.136179679902043      -0.217874033757599      -0.136179679902043     
  0.136179679902044      -0.217874033757600      -0.136179679902043     
 -0.136179679902043       0.217874033757599      -0.136179679902043     
  0.136179679902043       0.217874033757599      -0.136179679902043     
  0.000000000000000E+000  0.000000000000000E+000  0.000000000000000E+000
  0.000000000000000E+000  0.000000000000000E+000  0.000000000000000E+000
  7.000649812628367E-017 -8.077672860725039E-017  2.665087135698759E-002
  8.616184384773376E-017  8.616184384773376E-017 -0.106624964870440     
 -0.136179679902043      -0.136179679902043      -0.217874033757599     
  0.136179679902044      -0.136179679902043      -0.217874033757600     
  0.136179679902043      -0.136179679902043       0.217874033757599     
 -0.136179679902043      -0.136179679902043       0.217874033757599     
  0.000000000000000E+000  0.000000000000000E+000  0.000000000000000E+000
  0.000000000000000E+000  0.000000000000000E+000  0.000000000000000E+000
  2.665087135698758E-002 -3.231069144290016E-017  5.385115240483359E-017
  2.665087135698757E-002  5.385115240483359E-017 -3.231069144290016E-017
 -0.217874033757599       0.136179679902043       0.136179679902043     
 -0.217874033757600      -0.136179679902044      -0.136179679902044     
  0.217874033757599       0.136179679902043      -0.136179679902043     
  0.217874033757599      -0.136179679902043       0.136179679902043     
  0.000000000000000E+000  0.000000000000000E+000  0.000000000000000E+000
  0.000000000000000E+000  0.000000000000000E+000  0.000000000000000E+000
 -4.308092192386688E-017  2.665087135698758E-002 -5.385115240483359E-017
 -5.385115240483359E-017 -0.106624964870440       5.385115240483359E-017
  0.136179679902043      -0.217874033757599      -0.136179679902043     
 -0.136179679902044      -0.217874033757599      -0.136179679902043     
  0.136179679902043       0.217874033757599      -0.136179679902043     
 -0.136179679902043       0.217874033757599      -0.136179679902043     
  0.000000000000000E+000  0.000000000000000E+000  0.000000000000000E+000
  0.000000000000000E+000  0.000000000000000E+000  0.000000000000000E+000
 -5.385115240483359E-017  5.385115240483359E-017 -0.106624964870440     
 -4.308092192386688E-017 -4.846603716435024E-017  2.665087135698758E-002
  0.136179679902043      -0.136179679902043      -0.217874033757599     
 -0.136179679902044      -0.136179679902043      -0.217874033757599     
 -0.136179679902043      -0.136179679902043       0.217874033757599     
  0.136179679902043      -0.136179679902043       0.217874033757599     
 -2.665087135698760E-002 -8.616184384773376E-017 -7.000649812628367E-017
 -2.665087135698758E-002  4.308092192386688E-017  5.385115240483359E-017
  0.000000000000000E+000  0.000000000000000E+000  0.000000000000000E+000
  0.000000000000000E+000  0.000000000000000E+000  0.000000000000000E+000
  0.217874033757599      -0.136179679902043       0.136179679902043     
  0.217874033757600       0.136179679902044      -0.136179679902044     
 -0.217874033757599      -0.136179679902043      -0.136179679902043     
 -0.217874033757599       0.136179679902043       0.136179679902043     
  8.616184384773376E-017  0.106624964870440       8.077672860725039E-017
  3.231069144290016E-017 -2.665087135698758E-002 -5.385115240483359E-017
  0.000000000000000E+000  0.000000000000000E+000  0.000000000000000E+000
  0.000000000000000E+000  0.000000000000000E+000  0.000000000000000E+000
 -0.136179679902043       0.217874033757599      -0.136179679902043     
  0.136179679902044       0.217874033757599      -0.136179679902043     
 -0.136179679902043      -0.217874033757599      -0.136179679902043     
  0.136179679902043      -0.217874033757599      -0.136179679902043     
 -7.000649812628367E-017 -8.616184384773376E-017 -2.665087135698759E-002
 -5.385115240483359E-017  5.385115240483359E-017  0.106624964870440     
  0.000000000000000E+000  0.000000000000000E+000  0.000000000000000E+000
  0.000000000000000E+000  0.000000000000000E+000  0.000000000000000E+000
  0.136179679902043      -0.136179679902043       0.217874033757599     
 -0.136179679902044      -0.136179679902043       0.217874033757599     
 -0.136179679902043      -0.136179679902043      -0.217874033757599     
  0.136179679902043      -0.136179679902043      -0.217874033757599     
 -2.665087135698760E-002 -7.000649812628367E-017 -8.616184384773376E-017
 -2.665087135698757E-002  5.385115240483359E-017  4.308092192386688E-017
  0.000000000000000E+000  0.000000000000000E+000  0.000000000000000E+000
  0.000000000000000E+000  0.000000000000000E+000  0.000000000000000E+000
  0.217874033757599       0.136179679902043      -0.136179679902043     
  0.217874033757600      -0.136179679902044       0.136179679902044     
 -0.217874033757599       0.136179679902043       0.136179679902043     
 -0.217874033757599      -0.136179679902043      -0.136179679902043     
 -7.000649812628367E-017 -2.665087135698760E-002 -8.616184384773376E-017
 -5.385115240483359E-017  0.106624964870440       4.846603716435024E-017
  0.000000000000000E+000  0.000000000000000E+000  0.000000000000000E+000
  0.000000000000000E+000  0.000000000000000E+000  0.000000000000000E+000
  0.136179679902043       0.217874033757599      -0.136179679902043     
 -0.136179679902044       0.217874033757599      -0.136179679902043     
  0.136179679902043      -0.217874033757599      -0.136179679902043     
 -0.136179679902043      -0.217874033757599      -0.136179679902043     
  8.616184384773376E-017  8.616184384773376E-017  0.106624964870440     
  3.231069144290016E-017 -5.385115240483359E-017 -2.665087135698758E-002
  0.000000000000000E+000  0.000000000000000E+000  0.000000000000000E+000
  0.000000000000000E+000  0.000000000000000E+000  0.000000000000000E+000
 -0.136179679902043      -0.136179679902043       0.217874033757599     
  0.136179679902044      -0.136179679902043       0.217874033757599     
  0.136179679902043      -0.136179679902043      -0.217874033757599     
 -0.136179679902043      -0.136179679902043      -0.217874033757599     
  0.217874033757599       0.136179679902043       0.136179679902043     
  0.217874033757599      -0.136179679902043      -0.136179679902043     
 -0.217874033757599       0.136179679902043      -0.136179679902043     
 -0.217874033757599      -0.136179679902043       0.136179679902043     
  0.000000000000000E+000  0.000000000000000E+000  0.000000000000000E+000
  0.000000000000000E+000  0.000000000000000E+000  0.000000000000000E+000
  2.665087135698766E-002  0.000000000000000E+000  3.231069144290016E-017
  2.665087135698762E-002  7.000649812628367E-017  0.000000000000000E+000
  0.136179679902043       0.217874033757599       0.136179679902043     
 -0.136179679902043       0.217874033757599       0.136179679902043     
  0.136179679902043      -0.217874033757599       0.136179679902043     
 -0.136179679902043      -0.217874033757599       0.136179679902043     
  0.000000000000000E+000  0.000000000000000E+000  0.000000000000000E+000
  0.000000000000000E+000  0.000000000000000E+000  0.000000000000000E+000
  5.385115240483360E-018 -0.106624964870440       5.385115240483360E-018
  7.000649812628367E-017  2.665087135698762E-002  5.385115240483360E-018
  0.136179679902043       0.136179679902043       0.217874033757599     
 -0.136179679902043       0.136179679902043       0.217874033757599     
 -0.136179679902043       0.136179679902043      -0.217874033757599     
  0.136179679902043       0.136179679902043      -0.217874033757599     
  0.000000000000000E+000  0.000000000000000E+000  0.000000000000000E+000
  0.000000000000000E+000  0.000000000000000E+000  0.000000000000000E+000
  3.231069144290016E-017  5.385115240483360E-018  2.665087135698768E-002
  5.385115240483360E-018  5.385115240483360E-018 -0.106624964870440     
  0.217874033757600      -0.136179679902044      -0.136179679902044     
  0.217874033757600       0.136179679902044       0.136179679902044     
 -0.217874033757600      -0.136179679902044       0.136179679902044     
 -0.217874033757600       0.136179679902044      -0.136179679902044     
  0.000000000000000E+000  0.000000000000000E+000  0.000000000000000E+000
  0.000000000000000E+000  0.000000000000000E+000  0.000000000000000E+000
  2.665087135698754E-002  2.154046096193344E-017  1.077023048096672E-017
  2.665087135698756E-002  1.615534572145008E-017  3.231069144290016E-017
 -0.136179679902044       0.217874033757600       0.136179679902043     
  0.136179679902044       0.217874033757599       0.136179679902043     
 -0.136179679902044      -0.217874033757599       0.136179679902043     
  0.136179679902044      -0.217874033757599       0.136179679902043     
  0.000000000000000E+000  0.000000000000000E+000  0.000000000000000E+000
  0.000000000000000E+000  0.000000000000000E+000  0.000000000000000E+000
  1.077023048096672E-017  2.665087135698754E-002 -1.077023048096672E-017
 -1.615534572145008E-017 -0.106624964870440       1.615534572145008E-017
 -0.136179679902044       0.136179679902043       0.217874033757600     
  0.136179679902044       0.136179679902043       0.217874033757599     
  0.136179679902044       0.136179679902043      -0.217874033757599     
 -0.136179679902044       0.136179679902043      -0.217874033757599     
  0.000000000000000E+000  0.000000000000000E+000  0.000000000000000E+000
  0.000000000000000E+000  0.000000000000000E+000  0.000000000000000E+000
 -1.077023048096672E-017  1.077023048096672E-017 -0.106624964870440     
  1.077023048096672E-017 -1.077023048096672E-017  2.665087135698754E-002
 -0.217874033757599       0.136179679902043      -0.136179679902043     
 -0.217874033757599      -0.136179679902043       0.136179679902043     
  0.217874033757599       0.136179679902043       0.136179679902043     
  0.217874033757599      -0.136179679902043      -0.136179679902043     
 -2.665087135698766E-002 -5.385115240483360E-018 -3.231069144290016E-017
 -2.665087135698754E-002 -1.077023048096672E-017  1.077023048096672E-017
  0.000000000000000E+000  0.000000000000000E+000  0.000000000000000E+000
  0.000000000000000E+000  0.000000000000000E+000  0.000000000000000E+000
  0.136179679902043      -0.217874033757599       0.136179679902043     
 -0.136179679902043      -0.217874033757599       0.136179679902043     
  0.136179679902043       0.217874033757599       0.136179679902043     
 -0.136179679902043       0.217874033757599       0.136179679902043     
  0.000000000000000E+000  0.106624964870440      -5.385115240483360E-018
 -2.154046096193344E-017 -2.665087135698754E-002 -1.077023048096672E-017
  0.000000000000000E+000  0.000000000000000E+000  0.000000000000000E+000
  0.000000000000000E+000  0.000000000000000E+000  0.000000000000000E+000
 -0.136179679902043       0.136179679902043      -0.217874033757599     
  0.136179679902043       0.136179679902043      -0.217874033757599     
  0.136179679902043       0.136179679902043       0.217874033757599     
 -0.136179679902043       0.136179679902043       0.217874033757599     
 -3.231069144290016E-017 -5.385115240483360E-018 -2.665087135698768E-002
 -1.077023048096672E-017  1.077023048096672E-017  0.106624964870440     
  0.000000000000000E+000  0.000000000000000E+000  0.000000000000000E+000
  0.000000000000000E+000  0.000000000000000E+000  0.000000000000000E+000
 -0.217874033757599      -0.136179679902043       0.136179679902043     
 -0.217874033757599       0.136179679902043      -0.136179679902043     
  0.217874033757599      -0.136179679902043      -0.136179679902043     
  0.217874033757599       0.136179679902043       0.136179679902043     
 -2.665087135698762E-002 -7.000649812628367E-017 -5.385115240483360E-018
 -2.665087135698756E-002  1.615534572145008E-017 -1.077023048096672E-017
  0.000000000000000E+000  0.000000000000000E+000  0.000000000000000E+000
  0.000000000000000E+000  0.000000000000000E+000  0.000000000000000E+000
 -0.136179679902043      -0.217874033757599       0.136179679902043     
  0.136179679902043      -0.217874033757599       0.136179679902043     
 -0.136179679902043       0.217874033757599       0.136179679902043     
  0.136179679902043       0.217874033757599       0.136179679902043     
 -7.000649812628367E-017 -2.665087135698762E-002 -5.385115240483360E-018
 -1.615534572145008E-017  0.106624964870440       1.077023048096672E-017
  0.000000000000000E+000  0.000000000000000E+000  0.000000000000000E+000
  0.000000000000000E+000  0.000000000000000E+000  0.000000000000000E+000
  0.136179679902043       0.136179679902043      -0.217874033757599     
 -0.136179679902043       0.136179679902043      -0.217874033757599     
 -0.136179679902043       0.136179679902043       0.217874033757599     
  0.136179679902043       0.136179679902043       0.217874033757599     
  0.000000000000000E+000 -5.385115240483360E-018  0.106624964870440     
 -3.231069144290016E-017 -1.615534572145008E-017 -2.665087135698754E-002
  0.000000000000000E+000  0.000000000000000E+000  0.000000000000000E+000
  0.000000000000000E+000  0.000000000000000E+000  0.000000000000000E+000
 ixyz:           2
  0.000000000000000E+000  0.000000000000000E+000  0.000000000000000E+000
 -0.106624964870440       8.616184384773376E-017  8.616184384773376E-017
  0.000000000000000E+000  0.000000000000000E+000  0.000000000000000E+000
  2.665087135698760E-002  7.000649812628367E-017 -8.616184384773376E-017
 -0.217874033757599      -0.136179679902043      -0.136179679902043     
  0.217874033757599      -0.136179679902043      -0.136179679902043     
 -0.217874033757600       0.136179679902044      -0.136179679902043     
  0.217874033757599       0.136179679902043      -0.136179679902043     
  0.000000000000000E+000  0.000000000000000E+000  0.000000000000000E+000
 -8.616184384773376E-017  2.665087135698758E-002  7.000649812628367E-017
  0.000000000000000E+000  0.000000000000000E+000  0.000000000000000E+000
  7.000649812628367E-017  2.665087135698760E-002 -8.616184384773376E-017
 -0.136179679902043      -0.217874033757599      -0.136179679902043     
 -0.136179679902043       0.217874033757599       0.136179679902043     
  0.136179679902044      -0.217874033757600       0.136179679902044     
  0.136179679902043       0.217874033757599      -0.136179679902043     
  0.000000000000000E+000  0.000000000000000E+000  0.000000000000000E+000
 -8.616184384773376E-017  6.462138288580031E-017  2.665087135698758E-002
  0.000000000000000E+000  0.000000000000000E+000  0.000000000000000E+000
  8.616184384773376E-017  8.616184384773376E-017 -0.106624964870440     
 -0.136179679902043      -0.136179679902043      -0.217874033757599     
 -0.136179679902043       0.136179679902043       0.217874033757599     
 -0.136179679902043       0.136179679902044      -0.217874033757600     
 -0.136179679902043      -0.136179679902043       0.217874033757599     
  0.106624964870440       8.616184384773376E-017  8.616184384773376E-017
  0.000000000000000E+000  0.000000000000000E+000  0.000000000000000E+000
  2.665087135698758E-002 -3.231069144290016E-017  5.385115240483359E-017
  0.000000000000000E+000  0.000000000000000E+000  0.000000000000000E+000
  0.217874033757599      -0.136179679902043      -0.136179679902043     
 -0.217874033757599      -0.136179679902043      -0.136179679902043     
  0.217874033757599       0.136179679902044      -0.136179679902043     
 -0.217874033757599       0.136179679902043      -0.136179679902043     
 -8.616184384773376E-017 -2.665087135698758E-002 -6.462138288580031E-017
  0.000000000000000E+000  0.000000000000000E+000  0.000000000000000E+000
 -4.308092192386688E-017  2.665087135698758E-002 -5.385115240483359E-017
  0.000000000000000E+000  0.000000000000000E+000  0.000000000000000E+000
 -0.136179679902043       0.217874033757599       0.136179679902043     
 -0.136179679902043      -0.217874033757599      -0.136179679902043     
  0.136179679902044       0.217874033757600      -0.136179679902044     
  0.136179679902043      -0.217874033757599       0.136179679902043     
 -8.616184384773376E-017 -7.000649812628367E-017 -2.665087135698758E-002
  0.000000000000000E+000  0.000000000000000E+000  0.000000000000000E+000
 -5.385115240483359E-017  5.385115240483359E-017 -0.106624964870440     
  0.000000000000000E+000  0.000000000000000E+000  0.000000000000000E+000
 -0.136179679902043       0.136179679902043       0.217874033757599     
 -0.136179679902043      -0.136179679902043      -0.217874033757599     
 -0.136179679902043      -0.136179679902044       0.217874033757599     
 -0.136179679902043       0.136179679902043      -0.217874033757599     
  0.000000000000000E+000  0.000000000000000E+000  0.000000000000000E+000
 -2.665087135698758E-002  4.308092192386688E-017  5.385115240483359E-017
  0.000000000000000E+000  0.000000000000000E+000  0.000000000000000E+000
 -0.106624964870440      -5.385115240483359E-017  5.385115240483359E-017
 -0.217874033757599       0.136179679902043      -0.136179679902043     
  0.217874033757599       0.136179679902043      -0.136179679902043     
 -0.217874033757599      -0.136179679902044      -0.136179679902043     
  0.217874033757599      -0.136179679902043      -0.136179679902043     
  0.000000000000000E+000  0.000000000000000E+000  0.000000000000000E+000
  3.231069144290016E-017 -2.665087135698758E-002 -5.385115240483359E-017
  0.000000000000000E+000  0.000000000000000E+000  0.000000000000000E+000
  5.385115240483359E-017  2.665087135698757E-002 -3.231069144290016E-017
  0.136179679902043      -0.217874033757599       0.136179679902043     
  0.136179679902043       0.217874033757599      -0.136179679902043     
 -0.136179679902044      -0.217874033757600      -0.136179679902044     
 -0.136179679902043       0.217874033757599       0.136179679902043     
  0.000000000000000E+000  0.000000000000000E+000  0.000000000000000E+000
 -5.385115240483359E-017  5.385115240483359E-017  0.106624964870440     
  0.000000000000000E+000  0.000000000000000E+000  0.000000000000000E+000
 -5.385115240483359E-017 -4.846603716435024E-017  2.665087135698757E-002
 -0.136179679902043       0.136179679902043      -0.217874033757599     
 -0.136179679902043      -0.136179679902043       0.217874033757599     
 -0.136179679902043      -0.136179679902044      -0.217874033757599     
 -0.136179679902043       0.136179679902043       0.217874033757599     
 -2.665087135698760E-002 -7.000649812628367E-017 -8.616184384773376E-017
  0.000000000000000E+000  0.000000000000000E+000  0.000000000000000E+000
  0.106624964870440      -5.385115240483359E-017  5.385115240483359E-017
  0.000000000000000E+000  0.000000000000000E+000  0.000000000000000E+000
  0.217874033757599       0.136179679902043      -0.136179679902043     
 -0.217874033757599       0.136179679902043      -0.136179679902043     
  0.217874033757599      -0.136179679902044      -0.136179679902043     
 -0.217874033757599      -0.136179679902043      -0.136179679902043     
 -7.000649812628367E-017 -2.665087135698760E-002 -8.616184384773376E-017
  0.000000000000000E+000  0.000000000000000E+000  0.000000000000000E+000
  5.385115240483359E-017 -2.665087135698757E-002  4.846603716435024E-017
  0.000000000000000E+000  0.000000000000000E+000  0.000000000000000E+000
  0.136179679902043       0.217874033757599      -0.136179679902043     
  0.136179679902043      -0.217874033757599       0.136179679902043     
 -0.136179679902044       0.217874033757600       0.136179679902044     
 -0.136179679902043      -0.217874033757599      -0.136179679902043     
  8.616184384773376E-017  8.616184384773376E-017  0.106624964870440     
  0.000000000000000E+000  0.000000000000000E+000  0.000000000000000E+000
 -5.385115240483359E-017  3.231069144290016E-017 -2.665087135698757E-002
  0.000000000000000E+000  0.000000000000000E+000  0.000000000000000E+000
 -0.136179679902043      -0.136179679902043       0.217874033757599     
 -0.136179679902043       0.136179679902043      -0.217874033757599     
 -0.136179679902043       0.136179679902044       0.217874033757599     
 -0.136179679902043      -0.136179679902043      -0.217874033757599     
  0.217874033757599       0.136179679902043       0.136179679902043     
 -0.217874033757599       0.136179679902043       0.136179679902043     
  0.217874033757599      -0.136179679902043       0.136179679902043     
 -0.217874033757599      -0.136179679902043       0.136179679902043     
  0.000000000000000E+000  0.000000000000000E+000  0.000000000000000E+000
 -0.106624964870440       5.385115240483360E-018  5.385115240483360E-018
  0.000000000000000E+000  0.000000000000000E+000  0.000000000000000E+000
  2.665087135698762E-002  7.000649812628367E-017  0.000000000000000E+000
  0.136179679902043       0.217874033757599       0.136179679902043     
  0.136179679902043      -0.217874033757599      -0.136179679902043     
 -0.136179679902043       0.217874033757599      -0.136179679902043     
 -0.136179679902043      -0.217874033757599       0.136179679902043     
  0.000000000000000E+000  0.000000000000000E+000  0.000000000000000E+000
  0.000000000000000E+000  2.665087135698766E-002  3.769580668338351E-017
  0.000000000000000E+000  0.000000000000000E+000  0.000000000000000E+000
  7.000649812628367E-017  2.665087135698762E-002  5.385115240483360E-018
  0.136179679902043       0.136179679902043       0.217874033757599     
  0.136179679902043      -0.136179679902043      -0.217874033757599     
  0.136179679902043      -0.136179679902043       0.217874033757599     
  0.136179679902043       0.136179679902043      -0.217874033757599     
  0.000000000000000E+000  0.000000000000000E+000  0.000000000000000E+000
  0.000000000000000E+000  3.231069144290016E-017  2.665087135698766E-002
  0.000000000000000E+000  0.000000000000000E+000  0.000000000000000E+000
  5.385115240483360E-018  5.385115240483360E-018 -0.106624964870440     
 -0.217874033757599       0.136179679902043       0.136179679902043     
  0.217874033757599       0.136179679902043       0.136179679902043     
 -0.217874033757599      -0.136179679902043       0.136179679902043     
  0.217874033757599      -0.136179679902043       0.136179679902043     
  0.106624964870440       0.000000000000000E+000  0.000000000000000E+000
  0.000000000000000E+000  0.000000000000000E+000  0.000000000000000E+000
  2.665087135698754E-002  2.154046096193344E-017  1.077023048096672E-017
  0.000000000000000E+000  0.000000000000000E+000  0.000000000000000E+000
  0.136179679902043      -0.217874033757599      -0.136179679902043     
  0.136179679902043       0.217874033757599       0.136179679902043     
 -0.136179679902043      -0.217874033757599       0.136179679902043     
 -0.136179679902043       0.217874033757599      -0.136179679902043     
 -5.385115240483360E-018 -2.665087135698766E-002 -3.231069144290016E-017
  0.000000000000000E+000  0.000000000000000E+000  0.000000000000000E+000
  1.077023048096672E-017  2.665087135698754E-002 -1.077023048096672E-017
  0.000000000000000E+000  0.000000000000000E+000  0.000000000000000E+000
  0.136179679902043      -0.136179679902043      -0.217874033757599     
  0.136179679902043       0.136179679902043       0.217874033757599     
  0.136179679902043       0.136179679902043      -0.217874033757599     
  0.136179679902043      -0.136179679902043       0.217874033757599     
 -5.385115240483360E-018 -3.769580668338351E-017 -2.665087135698766E-002
  0.000000000000000E+000  0.000000000000000E+000  0.000000000000000E+000
 -1.077023048096672E-017  1.077023048096672E-017 -0.106624964870440     
  0.000000000000000E+000  0.000000000000000E+000  0.000000000000000E+000
  0.217874033757600      -0.136179679902044       0.136179679902043     
 -0.217874033757599      -0.136179679902044       0.136179679902043     
  0.217874033757599       0.136179679902044       0.136179679902043     
 -0.217874033757599       0.136179679902044       0.136179679902043     
  0.000000000000000E+000  0.000000000000000E+000  0.000000000000000E+000
 -2.665087135698754E-002 -1.077023048096672E-017  1.077023048096672E-017
  0.000000000000000E+000  0.000000000000000E+000  0.000000000000000E+000
 -0.106624964870440      -1.615534572145008E-017  1.615534572145008E-017
 -0.136179679902044       0.217874033757600      -0.136179679902044     
 -0.136179679902044      -0.217874033757600       0.136179679902044     
  0.136179679902044       0.217874033757600       0.136179679902044     
  0.136179679902044      -0.217874033757600      -0.136179679902044     
  0.000000000000000E+000  0.000000000000000E+000  0.000000000000000E+000
 -2.154046096193344E-017 -2.665087135698754E-002 -1.077023048096672E-017
  0.000000000000000E+000  0.000000000000000E+000  0.000000000000000E+000
  1.615534572145008E-017  2.665087135698756E-002  2.692557620241680E-017
  0.136179679902043      -0.136179679902044       0.217874033757600     
  0.136179679902043       0.136179679902044      -0.217874033757599     
  0.136179679902043       0.136179679902044       0.217874033757599     
  0.136179679902043      -0.136179679902044      -0.217874033757599     
  0.000000000000000E+000  0.000000000000000E+000  0.000000000000000E+000
 -1.077023048096672E-017  1.077023048096672E-017  0.106624964870440     
  0.000000000000000E+000  0.000000000000000E+000  0.000000000000000E+000
 -1.615534572145008E-017  1.077023048096672E-017  2.665087135698755E-002
 -0.217874033757599      -0.136179679902043       0.136179679902043     
  0.217874033757599      -0.136179679902043       0.136179679902043     
 -0.217874033757599       0.136179679902043       0.136179679902043     
  0.217874033757599       0.136179679902043       0.136179679902043     
 -2.665087135698762E-002 -7.000649812628367E-017 -5.385115240483360E-018
  0.000000000000000E+000  0.000000000000000E+000  0.000000000000000E+000
  0.106624964870440      -1.615534572145008E-017  1.615534572145008E-017
  0.000000000000000E+000  0.000000000000000E+000  0.000000000000000E+000
 -0.136179679902043      -0.217874033757599       0.136179679902043     
 -0.136179679902043       0.217874033757599      -0.136179679902043     
  0.136179679902043      -0.217874033757599      -0.136179679902043     
  0.136179679902043       0.217874033757599       0.136179679902043     
 -7.000649812628367E-017 -2.665087135698762E-002 -5.385115240483360E-018
  0.000000000000000E+000  0.000000000000000E+000  0.000000000000000E+000
  1.615534572145008E-017 -2.665087135698756E-002 -1.077023048096672E-017
  0.000000000000000E+000  0.000000000000000E+000  0.000000000000000E+000
  0.136179679902043       0.136179679902043      -0.217874033757599     
  0.136179679902043      -0.136179679902043       0.217874033757599     
  0.136179679902043      -0.136179679902043      -0.217874033757599     
  0.136179679902043       0.136179679902043       0.217874033757599     
  0.000000000000000E+000 -5.385115240483360E-018  0.106624964870440     
  0.000000000000000E+000  0.000000000000000E+000  0.000000000000000E+000
 -1.615534572145008E-017 -2.692557620241680E-017 -2.665087135698755E-002
  0.000000000000000E+000  0.000000000000000E+000  0.000000000000000E+000
 ixyz:           3
  0.000000000000000E+000  0.000000000000000E+000  0.000000000000000E+000
 -0.106624964870440       8.616184384773376E-017  8.616184384773376E-017
  2.665087135698760E-002 -8.616184384773376E-017  7.000649812628367E-017
  0.000000000000000E+000  0.000000000000000E+000  0.000000000000000E+000
 -0.217874033757599      -0.136179679902043      -0.136179679902043     
  0.217874033757599      -0.136179679902043      -0.136179679902043     
  0.217874033757599      -0.136179679902043       0.136179679902043     
 -0.217874033757600      -0.136179679902043       0.136179679902044     
  0.000000000000000E+000  0.000000000000000E+000  0.000000000000000E+000
 -8.616184384773376E-017  2.665087135698758E-002  7.000649812628367E-017
  8.616184384773376E-017 -0.106624964870440       8.616184384773376E-017
  0.000000000000000E+000  0.000000000000000E+000  0.000000000000000E+000
 -0.136179679902043      -0.217874033757599      -0.136179679902043     
 -0.136179679902043       0.217874033757599       0.136179679902043     
 -0.136179679902043       0.217874033757599      -0.136179679902043     
 -0.136179679902043      -0.217874033757600       0.136179679902044     
  0.000000000000000E+000  0.000000000000000E+000  0.000000000000000E+000
 -8.616184384773376E-017  6.462138288580031E-017  2.665087135698758E-002
  7.000649812628367E-017 -8.077672860725039E-017  2.665087135698759E-002
  0.000000000000000E+000  0.000000000000000E+000  0.000000000000000E+000
 -0.136179679902043      -0.136179679902043      -0.217874033757599     
 -0.136179679902043       0.136179679902043       0.217874033757599     
  0.136179679902043      -0.136179679902043       0.217874033757599     
  0.136179679902044       0.136179679902044      -0.217874033757600     
  0.106624964870440       8.616184384773376E-017  8.616184384773376E-017
  0.000000000000000E+000  0.000000000000000E+000  0.000000000000000E+000
  0.000000000000000E+000  0.000000000000000E+000  0.000000000000000E+000
  2.665087135698757E-002  5.385115240483359E-017 -3.231069144290016E-017
  0.217874033757599      -0.136179679902043      -0.136179679902043     
 -0.217874033757599      -0.136179679902043      -0.136179679902043     
 -0.217874033757599      -0.136179679902043       0.136179679902043     
  0.217874033757599      -0.136179679902043       0.136179679902044     
 -8.616184384773376E-017 -2.665087135698758E-002 -6.462138288580031E-017
  0.000000000000000E+000  0.000000000000000E+000  0.000000000000000E+000
  0.000000000000000E+000  0.000000000000000E+000  0.000000000000000E+000
 -5.385115240483359E-017 -0.106624964870440       5.385115240483359E-017
 -0.136179679902043       0.217874033757599       0.136179679902043     
 -0.136179679902043      -0.217874033757599      -0.136179679902043     
 -0.136179679902043      -0.217874033757599       0.136179679902043     
 -0.136179679902043       0.217874033757599      -0.136179679902044     
 -8.616184384773376E-017 -7.000649812628367E-017 -2.665087135698758E-002
  0.000000000000000E+000  0.000000000000000E+000  0.000000000000000E+000
  0.000000000000000E+000  0.000000000000000E+000  0.000000000000000E+000
 -4.308092192386688E-017 -4.846603716435024E-017  2.665087135698758E-002
 -0.136179679902043       0.136179679902043       0.217874033757599     
 -0.136179679902043      -0.136179679902043      -0.217874033757599     
  0.136179679902043       0.136179679902043      -0.217874033757599     
  0.136179679902044      -0.136179679902044       0.217874033757600     
 -2.665087135698760E-002 -8.616184384773376E-017 -7.000649812628367E-017
  0.000000000000000E+000  0.000000000000000E+000  0.000000000000000E+000
  0.000000000000000E+000  0.000000000000000E+000  0.000000000000000E+000
 -0.106624964870440      -5.385115240483359E-017  5.385115240483359E-017
  0.217874033757599      -0.136179679902043       0.136179679902043     
 -0.217874033757599      -0.136179679902043       0.136179679902043     
 -0.217874033757599      -0.136179679902043      -0.136179679902043     
  0.217874033757599      -0.136179679902043      -0.136179679902044     
  8.616184384773376E-017  0.106624964870440       8.077672860725039E-017
  0.000000000000000E+000  0.000000000000000E+000  0.000000000000000E+000
  0.000000000000000E+000  0.000000000000000E+000  0.000000000000000E+000
  5.385115240483359E-017  2.665087135698757E-002 -3.231069144290016E-017
 -0.136179679902043       0.217874033757599      -0.136179679902043     
 -0.136179679902043      -0.217874033757599       0.136179679902043     
 -0.136179679902043      -0.217874033757599      -0.136179679902043     
 -0.136179679902043       0.217874033757599       0.136179679902044     
 -7.000649812628367E-017 -8.616184384773376E-017 -2.665087135698759E-002
  0.000000000000000E+000  0.000000000000000E+000  0.000000000000000E+000
  0.000000000000000E+000  0.000000000000000E+000  0.000000000000000E+000
 -5.385115240483359E-017 -4.846603716435024E-017  2.665087135698757E-002
  0.136179679902043      -0.136179679902043       0.217874033757599     
  0.136179679902043       0.136179679902043      -0.217874033757599     
 -0.136179679902043      -0.136179679902043      -0.217874033757599     
 -0.136179679902044       0.136179679902044       0.217874033757600     
  0.000000000000000E+000  0.000000000000000E+000  0.000000000000000E+000
 -2.665087135698757E-002  5.385115240483359E-017  4.308092192386688E-017
  0.106624964870440      -5.385115240483359E-017  5.385115240483359E-017
  0.000000000000000E+000  0.000000000000000E+000  0.000000000000000E+000
 -0.217874033757599      -0.136179679902043       0.136179679902043     
  0.217874033757599      -0.136179679902043       0.136179679902043     
  0.217874033757599      -0.136179679902043      -0.136179679902043     
 -0.217874033757599      -0.136179679902043      -0.136179679902044     
  0.000000000000000E+000  0.000000000000000E+000  0.000000000000000E+000
 -5.385115240483359E-017  0.106624964870440       4.846603716435024E-017
  5.385115240483359E-017 -2.665087135698757E-002  4.846603716435024E-017
  0.000000000000000E+000  0.000000000000000E+000  0.000000000000000E+000
 -0.136179679902043      -0.217874033757599       0.136179679902043     
 -0.136179679902043       0.217874033757599      -0.136179679902043     
 -0.136179679902043       0.217874033757599       0.136179679902043     
 -0.136179679902043      -0.217874033757599      -0.136179679902044     
  0.000000000000000E+000  0.000000000000000E+000  0.000000000000000E+000
  3.231069144290016E-017 -5.385115240483359E-017 -2.665087135698758E-002
 -5.385115240483359E-017  3.231069144290016E-017 -2.665087135698757E-002
  0.000000000000000E+000  0.000000000000000E+000  0.000000000000000E+000
  0.136179679902043       0.136179679902043      -0.217874033757599     
  0.136179679902043      -0.136179679902043       0.217874033757599     
 -0.136179679902043       0.136179679902043       0.217874033757599     
 -0.136179679902044      -0.136179679902044      -0.217874033757600     
  0.217874033757599       0.136179679902043       0.136179679902043     
 -0.217874033757599       0.136179679902043       0.136179679902043     
 -0.217874033757599       0.136179679902043      -0.136179679902043     
  0.217874033757599       0.136179679902043      -0.136179679902043     
  0.000000000000000E+000  0.000000000000000E+000  0.000000000000000E+000
 -0.106624964870440       5.385115240483360E-018  5.385115240483360E-018
  2.665087135698766E-002  0.000000000000000E+000  3.231069144290016E-017
  0.000000000000000E+000  0.000000000000000E+000  0.000000000000000E+000
  0.136179679902043       0.217874033757599       0.136179679902043     
  0.136179679902043      -0.217874033757599      -0.136179679902043     
  0.136179679902043      -0.217874033757599       0.136179679902043     
  0.136179679902043       0.217874033757599      -0.136179679902043     
  0.000000000000000E+000  0.000000000000000E+000  0.000000000000000E+000
  0.000000000000000E+000  2.665087135698766E-002  3.769580668338351E-017
  5.385115240483360E-018 -0.106624964870440       5.385115240483360E-018
  0.000000000000000E+000  0.000000000000000E+000  0.000000000000000E+000
  0.136179679902043       0.136179679902043       0.217874033757599     
  0.136179679902043      -0.136179679902043      -0.217874033757599     
 -0.136179679902043       0.136179679902043      -0.217874033757599     
 -0.136179679902043      -0.136179679902043       0.217874033757599     
  0.000000000000000E+000  0.000000000000000E+000  0.000000000000000E+000
  0.000000000000000E+000  3.231069144290016E-017  2.665087135698766E-002
  3.231069144290016E-017  5.385115240483360E-018  2.665087135698768E-002
  0.000000000000000E+000  0.000000000000000E+000  0.000000000000000E+000
 -0.217874033757599       0.136179679902043       0.136179679902043     
  0.217874033757599       0.136179679902043       0.136179679902043     
  0.217874033757599       0.136179679902043      -0.136179679902043     
 -0.217874033757599       0.136179679902043      -0.136179679902043     
  0.106624964870440       0.000000000000000E+000  0.000000000000000E+000
  0.000000000000000E+000  0.000000000000000E+000  0.000000000000000E+000
  0.000000000000000E+000  0.000000000000000E+000  0.000000000000000E+000
  2.665087135698756E-002  1.615534572145008E-017  3.231069144290016E-017
  0.136179679902043      -0.217874033757599      -0.136179679902043     
  0.136179679902043       0.217874033757599       0.136179679902043     
  0.136179679902043       0.217874033757599      -0.136179679902043     
  0.136179679902043      -0.217874033757599       0.136179679902043     
 -5.385115240483360E-018 -2.665087135698766E-002 -3.231069144290016E-017
  0.000000000000000E+000  0.000000000000000E+000  0.000000000000000E+000
  0.000000000000000E+000  0.000000000000000E+000  0.000000000000000E+000
 -1.615534572145008E-017 -0.106624964870440       1.615534572145008E-017
  0.136179679902043      -0.136179679902043      -0.217874033757599     
  0.136179679902043       0.136179679902043       0.217874033757599     
 -0.136179679902043      -0.136179679902043       0.217874033757599     
 -0.136179679902043       0.136179679902043      -0.217874033757599     
 -5.385115240483360E-018 -3.769580668338351E-017 -2.665087135698766E-002
  0.000000000000000E+000  0.000000000000000E+000  0.000000000000000E+000
  0.000000000000000E+000  0.000000000000000E+000  0.000000000000000E+000
  1.077023048096672E-017 -1.077023048096672E-017  2.665087135698754E-002
 -0.217874033757599       0.136179679902043      -0.136179679902043     
  0.217874033757599       0.136179679902043      -0.136179679902043     
  0.217874033757599       0.136179679902043       0.136179679902043     
 -0.217874033757599       0.136179679902043       0.136179679902043     
 -2.665087135698766E-002 -5.385115240483360E-018 -3.231069144290016E-017
  0.000000000000000E+000  0.000000000000000E+000  0.000000000000000E+000
  0.000000000000000E+000  0.000000000000000E+000  0.000000000000000E+000
 -0.106624964870440      -1.615534572145008E-017  1.615534572145008E-017
  0.136179679902043      -0.217874033757599       0.136179679902043     
  0.136179679902043       0.217874033757599      -0.136179679902043     
  0.136179679902043       0.217874033757599       0.136179679902043     
  0.136179679902043      -0.217874033757599      -0.136179679902043     
  0.000000000000000E+000  0.106624964870440      -5.385115240483360E-018
  0.000000000000000E+000  0.000000000000000E+000  0.000000000000000E+000
  0.000000000000000E+000  0.000000000000000E+000  0.000000000000000E+000
  1.615534572145008E-017  2.665087135698756E-002  2.692557620241680E-017
 -0.136179679902043       0.136179679902043      -0.217874033757599     
 -0.136179679902043      -0.136179679902043       0.217874033757599     
  0.136179679902043       0.136179679902043       0.217874033757599     
  0.136179679902043      -0.136179679902043      -0.217874033757599     
 -3.231069144290016E-017 -5.385115240483360E-018 -2.665087135698768E-002
  0.000000000000000E+000  0.000000000000000E+000  0.000000000000000E+000
  0.000000000000000E+000  0.000000000000000E+000  0.000000000000000E+000
 -1.615534572145008E-017  1.077023048096672E-017  2.665087135698755E-002
  0.217874033757600       0.136179679902043      -0.136179679902044     
 -0.217874033757599       0.136179679902043      -0.136179679902044     
 -0.217874033757599       0.136179679902043       0.136179679902044     
  0.217874033757599       0.136179679902043       0.136179679902044     
  0.000000000000000E+000  0.000000000000000E+000  0.000000000000000E+000
 -2.665087135698756E-002  1.615534572145008E-017 -1.077023048096672E-017
  0.106624964870440      -1.615534572145008E-017  1.615534572145008E-017
  0.000000000000000E+000  0.000000000000000E+000  0.000000000000000E+000
  0.136179679902043       0.217874033757600      -0.136179679902044     
  0.136179679902043      -0.217874033757599       0.136179679902044     
  0.136179679902043      -0.217874033757599      -0.136179679902044     
  0.136179679902043       0.217874033757599       0.136179679902044     
  0.000000000000000E+000  0.000000000000000E+000  0.000000000000000E+000
 -1.615534572145008E-017  0.106624964870440       1.077023048096672E-017
  1.615534572145008E-017 -2.665087135698756E-002 -1.077023048096672E-017
  0.000000000000000E+000  0.000000000000000E+000  0.000000000000000E+000
 -0.136179679902044      -0.136179679902044       0.217874033757600     
 -0.136179679902044       0.136179679902044      -0.217874033757600     
  0.136179679902044      -0.136179679902044      -0.217874033757600     
  0.136179679902044       0.136179679902044       0.217874033757600     
  0.000000000000000E+000  0.000000000000000E+000  0.000000000000000E+000
 -3.231069144290016E-017 -1.615534572145008E-017 -2.665087135698754E-002
 -1.615534572145008E-017 -2.692557620241680E-017 -2.665087135698755E-002
  0.000000000000000E+000  0.000000000000000E+000  0.000000000000000E+000

  Thermal conductivity: 

  Lorentzian broadening factor =     128.218387 cm-1
                               =      15.897141 meV
  Frequency cutoff for AF term =       0.000000 cm-1
                               =       0.000000 meV

--------------------------------------------------------------------------------
 Mode    : Frequency              Mode diffusivity        Thermal conductivity  
         :   (cm-1)                  (cm**2/s)                  (W/m.K)         
--------------------------------------------------------------------------------
     4      221.9402                0.0000000000             0.0000000000
     5      221.9402                0.0000000000             0.0000000000
     6      221.9402                0.0000000000             0.0000000000
     7      221.9402                0.0000000000             0.0000000000
     8      221.9402                0.0000000000             0.0000000000
     9      221.9402                0.0000000000             0.0000000000
    10      429.6193                0.0000000000             0.0000000000
    11      429.6193                0.0000000000             0.0000000000
    12      429.6193                0.0000000000             0.0000000000
    13      429.6193                0.0000000000             0.0000000000
    14      429.6193                0.0000000000             0.0000000000
    15      429.6193                0.0000000000             0.0000000000
    16      516.4197                0.0000000000             0.0000000000
    17      516.4197                0.0000000000             0.0000000000
    18      516.4197                0.0000000000             0.0000000000
    19      516.4197                0.0000000000             0.0000000000
    20      516.4197                0.0000000000             0.0000000000
    21      516.4197                0.0000000000             0.0000000000
    22      589.8046                0.0000000000             0.0000000000
    23      589.8046                0.0000000000             0.0000000000
    24      589.8046                0.0000000000             0.0000000000
--------------------------------------------------------------------------------
  Thermal conductivity (Allen-Feldman) =     0.000000 W/(m.K) 
--------------------------------------------------------------------------------

--------------------------------------------------------------------------------
  Phonon properties (per mole of unit cells): Temperature =    300.000 K
--------------------------------------------------------------------------------
  Zero point energy            =        0.544126 eV
  Entropy                      =        0.000959 eV/K
                               =       92.529124 J/(mol.K)
  Helmholtz free-energy        =      -34.246890 eV
                               =    -3304.301111 kJmol-1
  Free energy (equipartition)  =      -34.342791 eV
  - T*S       (equipartition)  =       -0.199756 eV
  Uvib        (equipartition)  =        0.542892 eV
  Mean kinetic energy          =        0.402147 eV
  Heat capacity - const volume =        0.001294 eV/K
                               =      124.831433 J/(mol.K)
--------------------------------------------------------------------------------

  Phonon density of states : 

  Lorentzian broadening factor =     5.0000

--------------------------------------------------------------------------------
 Frequency (cm-1) Density of States                                             
--------------------------------------------------------------------------------
    0.00000 |**********                                                    0.143
    9.34033 |                                                              0.000
   18.68066 |                                                              0.000
   28.02098 |                                                              0.000
   37.36131 |                                                              0.000
   46.70164 |                                                              0.000
   56.04197 |                                                              0.000
   65.38229 |                                                              0.000
   74.72262 |                                                              0.000
   84.06295 |                                                              0.000
   93.40328 |                                                              0.000
  102.74361 |                                                              0.000
  112.08393 |                                                              0.000
  121.42426 |                                                              0.000
  130.76459 |                                                              0.000
  140.10492 |                                                              0.000
  149.44525 |                                                              0.000
  158.78557 |                                                              0.000
  168.12590 |                                                              0.000
  177.46623 |                                                              0.000
  186.80656 |                                                              0.000
  196.14688 |                                                              0.000
  205.48721 |                                                              0.000
  214.82754 |                                                              0.001
  224.16787 |                                                              0.007
  233.50820 |                                                              0.000
  242.84852 |                                                              0.000
  252.18885 |                                                              0.000
  261.52918 |                                                              0.000
  270.86951 |                                                              0.000
  280.20984 |                                                              0.000
  289.55016 |                                                              0.000
  298.89049 |                                                              0.000
  308.23082 |                                                              0.000
  317.57115 |                                                              0.000
  326.91147 |                                                              0.000
  336.25180 |                                                              0.000
  345.59213 |                                                              0.000
  354.93246 |                                                              0.000
  364.27279 |                                                              0.000
  373.61311 |                                                              0.000
  382.95344 |                                                              0.000
  392.29377 |                                                              0.000
  401.63410 |                                                              0.000
  410.97443 |                                                              0.000
  420.31475 |                                                              0.000
  429.65508 |************************************************************  0.832
  438.99541 |                                                              0.000
  448.33574 |                                                              0.000
  457.67606 |                                                              0.000
  467.01639 |                                                              0.000
  476.35672 |                                                              0.000
  485.69705 |                                                              0.000
  495.03738 |                                                              0.000
  504.37770 |                                                              0.000
  513.71803 |                                                              0.005
  523.05836 |                                                              0.001
  532.39869 |                                                              0.000
  541.73902 |                                                              0.000
  551.07934 |                                                              0.000
  560.41967 |                                                              0.000
  569.76000 |                                                              0.000
  579.10033 |                                                              0.000
  588.44065 |                                                              0.009
--------------------------------------------------------------------------------



  Time to end of optimisation =       0.0107 seconds


  Peak dynamic memory used =       1.82 MB 


  Timing analysis for GULP :

--------------------------------------------------------------------------------
  Task / Subroutine                                          Time (Seconds)
--------------------------------------------------------------------------------
  Calculation of real space energy and derivatives                0.0002
  Calculation of three-body energy and derivatives                0.0004
  Calculation of phonons                                          0.0035
--------------------------------------------------------------------------------
  Total CPU time                                                  0.0108
--------------------------------------------------------------------------------


  Job Finished at 14:37.28  9th September  2021                               

