********************************************************************************
*                       GENERAL UTILITY LATTICE PROGRAM                        *
*                                 Julian Gale                                  *
*                       Curtin Institute for Computation                       *
*                    School of Molecular and Life Sciences                     *
*                    Curtin University, Western Australia                      *
********************************************************************************
* Version = 5.2.0 * Last modified =  10th September 2020                       *
********************************************************************************
*  optimise     - perform optimisation run                                     *
*  conv         - constant volume calculation                                  *
*  isotropic    - only isotropic cell expansion to be allowed                  *
*  property     - calculate properties for final geometry                      *
*  phonon       - calculate phonons for final geometry                         *
*  thermal      - calculate thermal conductivity for final geometry            *
*  broaden_dos  - broaden density of states curves                             *
********************************************************************************
* ASE calculation                                                              *
********************************************************************************


  Job Started  at 18:01.49 14th September  2021                               

  Number of CPUs =     1

  Host name      = hydra                                   


  Total number of configurations input =      1

********************************************************************************
*  Input for Configuration =   1                                               *
********************************************************************************

  Formula = Si512                                                       

  Number of irreducible atoms/shells =     512


  Total number atoms/shells =     512

  Dimensionality = 3               :  Bulk   



  Cartesian lattice vectors (Angstroms) :

       21.889317    0.000000    0.000000
        0.000000   21.889317    0.000000
        0.000000    0.000000   21.889317

  Cell parameters (Angstroms/Degrees):

  a =      21.8893    alpha =  90.0000
  b =      21.8893    beta  =  90.0000
  c =      21.8893    gamma =  90.0000

  Initial cell volume =       10488.095476 Angs**3

  Temperature of configuration =   300.     K 

  Pressure of configuration =         0.000 GPa 

  Fractional coordinates of asymmetric unit :

--------------------------------------------------------------------------------
   No.  Atomic       x           y          z         Charge      Occupancy
        Label      (Frac)      (Frac)     (Frac)        (e)         (Frac)  
--------------------------------------------------------------------------------
      1 Si    c    0.450613    0.589241    0.898876     0.00000    1.000000    
      2 Si    c    0.987279 *  0.073475 *  0.016246 *   0.00000    1.000000    
      3 Si    c    0.090537 *  0.209702 *  0.082493 *   0.00000    1.000000    
      4 Si    c    0.259524 *  0.918108 *  0.103938 *   0.00000    1.000000    
      5 Si    c    0.239103 *  0.032934 *  0.377427 *   0.00000    1.000000    
      6 Si    c    0.480744 *  0.034700 *  0.488948 *   0.00000    1.000000    
      7 Si    c    0.753814 *  0.622817 *  0.380169 *   0.00000    1.000000    
      8 Si    c    0.432432 *  0.482399 *  0.901098 *   0.00000    1.000000    
      9 Si    c    0.519494 *  0.133270 *  0.473407 *   0.00000    1.000000    
     10 Si    c    0.214534 *  0.512617 *  0.557751 *   0.00000    1.000000    
     11 Si    c    0.187159 *  0.007191 *  0.921048 *   0.00000    1.000000    
     12 Si    c    0.252106 *  0.683099 *  0.768630 *   0.00000    1.000000    
     13 Si    c    0.424646 *  0.955227 *  0.113890 *   0.00000    1.000000    
     14 Si    c    0.880522 *  0.275584 *  0.518874 *   0.00000    1.000000    
     15 Si    c    0.176479 *  0.841828 *  0.874773 *   0.00000    1.000000    
     16 Si    c    0.174349 *  0.081531 *  0.841315 *   0.00000    1.000000    
     17 Si    c    0.916029 *  0.117998 *  0.590749 *   0.00000    1.000000    
     18 Si    c    0.203710 *  0.192907 *  0.956445 *   0.00000    1.000000    
     19 Si    c    0.855124 *  0.807538 *  0.814988 *   0.00000    1.000000    
     20 Si    c    0.377250 *  0.788814 *  0.692233 *   0.00000    1.000000    
     21 Si    c    0.871154 *  0.708293 *  0.848140 *   0.00000    1.000000    
     22 Si    c    0.834883 *  0.136493 *  0.658366 *   0.00000    1.000000    
     23 Si    c    0.017701 *  0.758757 *  0.904749 *   0.00000    1.000000    
     24 Si    c    0.390094 *  0.914699 *  0.462865 *   0.00000    1.000000    
     25 Si    c    0.699036 *  0.266694 *  0.351102 *   0.00000    1.000000    
     26 Si    c    0.937854 *  0.907285 *  0.129588 *   0.00000    1.000000    
     27 Si    c    0.002757 *  0.125325 *  0.406791 *   0.00000    1.000000    
     28 Si    c    0.710898 *  0.563445 *  0.979465 *   0.00000    1.000000    
     29 Si    c    0.532894 *  0.238980 *  0.341829 *   0.00000    1.000000    
     30 Si    c    0.343052 *  0.804899 *  0.016661 *   0.00000    1.000000    
     31 Si    c    0.151667 *  0.036557 *  0.019573 *   0.00000    1.000000    
     32 Si    c    0.653413 *  0.049795 *  0.071018 *   0.00000    1.000000    
     33 Si    c    0.999985 *  0.588074 *  0.204237 *   0.00000    1.000000    
     34 Si    c    0.634856 *  0.715466 *  0.652635 *   0.00000    1.000000    
     35 Si    c    0.482396 *  0.707949 *  0.213467 *   0.00000    1.000000    
     36 Si    c    0.559610 *  0.329892 *  0.554855 *   0.00000    1.000000    
     37 Si    c    0.049485 *  0.700104 *  0.415862 *   0.00000    1.000000    
     38 Si    c    0.465826 *  0.004167 *  0.663937 *   0.00000    1.000000    
     39 Si    c    0.132323 *  0.576298 *  0.588313 *   0.00000    1.000000    
     40 Si    c    0.019439 *  0.561972 *  0.465435 *   0.00000    1.000000    
     41 Si    c    0.618094 *  0.228160 *  0.013084 *   0.00000    1.000000    
     42 Si    c    0.407383 *  0.251774 *  0.673267 *   0.00000    1.000000    
     43 Si    c    0.601559 *  0.620213 *  0.610696 *   0.00000    1.000000    
     44 Si    c    0.796337 *  0.289948 *  0.583571 *   0.00000    1.000000    
     45 Si    c    0.951530 *  0.350374 *  0.200629 *   0.00000    1.000000    
     46 Si    c    0.487564 *  0.380595 *  0.133937 *   0.00000    1.000000    
     47 Si    c    0.464115 *  0.373863 *  0.775415 *   0.00000    1.000000    
     48 Si    c    0.216473 *  0.261134 *  0.339276 *   0.00000    1.000000    
     49 Si    c    0.718320 *  0.229521 *  0.741953 *   0.00000    1.000000    
     50 Si    c    0.990680 *  0.577336 *  0.095904 *   0.00000    1.000000    
     51 Si    c    0.647527 *  0.268528 *  0.109839 *   0.00000    1.000000    
     52 Si    c    0.308716 *  0.071062 *  0.062904 *   0.00000    1.000000    
     53 Si    c    0.380797 *  0.049887 *  0.141582 *   0.00000    1.000000    
     54 Si    c    0.803480 *  0.832199 *  0.044481 *   0.00000    1.000000    
     55 Si    c    0.805692 *  0.211459 *  0.087037 *   0.00000    1.000000    
     56 Si    c    0.406305 *  0.855597 *  0.863619 *   0.00000    1.000000    
     57 Si    c    0.704861 *  0.973020 *  0.261817 *   0.00000    1.000000    
     58 Si    c    0.787279 *  0.218394 *  0.980015 *   0.00000    1.000000    
     59 Si    c    0.164507 *  0.693395 *  0.510803 *   0.00000    1.000000    
     60 Si    c    0.865518 *  0.702530 *  0.684905 *   0.00000    1.000000    
     61 Si    c    0.858408 *  0.402114 *  0.201433 *   0.00000    1.000000    
     62 Si    c    0.984911 *  0.776735 *  0.344638 *   0.00000    1.000000    
     63 Si    c    0.211987 *  0.365918 *  0.897773 *   0.00000    1.000000    
     64 Si    c    0.726600 *  0.648630 *  0.916033 *   0.00000    1.000000    
     65 Si    c    0.223483 *  0.707501 *  0.991422 *   0.00000    1.000000    
     66 Si    c    0.353458 *  0.019201 *  0.977804 *   0.00000    1.000000    
     67 Si    c    0.521179 *  0.940168 *  0.733952 *   0.00000    1.000000    
     68 Si    c    0.130075 *  0.305042 *  0.220960 *   0.00000    1.000000    
     69 Si    c    0.615507 *  0.226931 *  0.700391 *   0.00000    1.000000    
     70 Si    c    0.237854 *  0.345142 *  0.632217 *   0.00000    1.000000    
     71 Si    c    0.415435 *  0.166407 *  0.610016 *   0.00000    1.000000    
     72 Si    c    0.918557 *  0.538445 *  0.949135 *   0.00000    1.000000    
     73 Si    c    0.937681 *  0.647963 *  0.441807 *   0.00000    1.000000    
     74 Si    c    0.446364 *  0.370707 *  0.430206 *   0.00000    1.000000    
     75 Si    c    0.433028 *  0.433501 *  0.617369 *   0.00000    1.000000    
     76 Si    c    0.574791 *  0.329386 *  0.661636 *   0.00000    1.000000    
     77 Si    c    0.154985 *  0.471090 *  0.233821 *   0.00000    1.000000    
     78 Si    c    0.693202 *  0.348079 *  0.279043 *   0.00000    1.000000    
     79 Si    c    0.862785 *  0.406207 *  0.353593 *   0.00000    1.000000    
     80 Si    c    0.881682 *  0.126088 *  0.754114 *   0.00000    1.000000    
     81 Si    c    0.672488 *  0.333697 *  0.906421 *   0.00000    1.000000    
     82 Si    c    0.400469 *  0.638181 *  0.980620 *   0.00000    1.000000    
     83 Si    c    0.349537 *  0.782158 *  0.121816 *   0.00000    1.000000    
     84 Si    c    0.077325 *  0.794914 *  0.287320 *   0.00000    1.000000    
     85 Si    c    0.633829 *  0.114018 *  0.322954 *   0.00000    1.000000    
     86 Si    c    0.211586 *  0.181074 *  0.852039 *   0.00000    1.000000    
     87 Si    c    0.184987 *  0.572809 *  0.218132 *   0.00000    1.000000    
     88 Si    c    0.439560 *  0.197488 *  0.507258 *   0.00000    1.000000    
     89 Si    c    0.587848 *  0.456315 *  0.012321 *   0.00000    1.000000    
     90 Si    c    0.381814 *  0.093661 *  0.305722 *   0.00000    1.000000    
     91 Si    c    0.587203 *  0.841779 *  0.859195 *   0.00000    1.000000    
     92 Si    c    0.851490 *  0.496810 *  0.873857 *   0.00000    1.000000    
     93 Si    c    0.053909 *  0.506906 *  0.601601 *   0.00000    1.000000    
     94 Si    c    0.926929 *  0.441300 *  0.429539 *   0.00000    1.000000    
     95 Si    c    0.047261 *  0.427809 *  0.230603 *   0.00000    1.000000    
     96 Si    c    0.369392 *  0.572490 *  0.693941 *   0.00000    1.000000    
     97 Si    c    0.209270 *  0.435383 *  0.151182 *   0.00000    1.000000    
     98 Si    c    0.112256 *  0.127558 *  0.556082 *   0.00000    1.000000    
     99 Si    c    0.953320 *  0.432931 *  0.689220 *   0.00000    1.000000    
    100 Si    c    0.483338 *  0.059638 *  0.314445 *   0.00000    1.000000    
    101 Si    c    0.995880 *  0.742313 *  0.012061 *   0.00000    1.000000    
    102 Si    c    0.246315 *  0.859417 *  0.792244 *   0.00000    1.000000    
    103 Si    c    0.821233 *  0.704477 *  0.360702 *   0.00000    1.000000    
    104 Si    c    0.729909 *  0.540141 *  0.532380 *   0.00000    1.000000    
    105 Si    c    0.159751 *  0.581773 *  0.691347 *   0.00000    1.000000    
    106 Si    c    0.003754 *  0.288067 *  0.362691 *   0.00000    1.000000    
    107 Si    c    0.788777 *  0.540408 *  0.440808 *   0.00000    1.000000    
    108 Si    c    0.189337 *  0.736130 *  0.607132 *   0.00000    1.000000    
    109 Si    c    0.059667 *  0.422331 *  0.672827 *   0.00000    1.000000    
    110 Si    c    0.001732 *  0.720847 *  0.574004 *   0.00000    1.000000    
    111 Si    c    0.921978 *  0.375063 *  0.514032 *   0.00000    1.000000    
    112 Si    c    0.321280 *  0.925335 *  0.835029 *   0.00000    1.000000    
    113 Si    c    0.500823 *  0.968411 *  0.570842 *   0.00000    1.000000    
    114 Si    c    0.791669 *  0.979538 *  0.671892 *   0.00000    1.000000    
    115 Si    c    0.555209 *  0.026610 *  0.787727 *   0.00000    1.000000    
    116 Si    c    0.101564 *  0.857403 *  0.123352 *   0.00000    1.000000    
    117 Si    c    0.752988 *  0.943715 *  0.850121 *   0.00000    1.000000    
    118 Si    c    0.781901 *  0.327566 *  0.218875 *   0.00000    1.000000    
    119 Si    c    0.884307 *  0.478310 *  0.272373 *   0.00000    1.000000    
    120 Si    c    0.635434 *  0.828039 *  0.448981 *   0.00000    1.000000    
    121 Si    c    0.679202 *  0.103904 *  0.156440 *   0.00000    1.000000    
    122 Si    c    0.887206 *  0.375933 *  0.746275 *   0.00000    1.000000    
    123 Si    c    0.333667 *  0.400337 *  0.009163 *   0.00000    1.000000    
    124 Si    c    0.635135 *  0.198537 *  0.189147 *   0.00000    1.000000    
    125 Si    c    0.901410 *  0.401419 *  0.849910 *   0.00000    1.000000    
    126 Si    c    0.880798 *  0.972728 *  0.729242 *   0.00000    1.000000    
    127 Si    c    0.858382 *  0.227618 *  0.425545 *   0.00000    1.000000    
    128 Si    c    0.250297 *  0.452834 *  0.640610 *   0.00000    1.000000    
    129 Si    c    0.645536 *  0.165418 *  0.859430 *   0.00000    1.000000    
    130 Si    c    0.534505 *  0.278765 *  0.964740 *   0.00000    1.000000    
    131 Si    c    0.964704 *  0.843536 *  0.427417 *   0.00000    1.000000    
    132 Si    c    0.495578 *  0.856308 *  0.799723 *   0.00000    1.000000    
    133 Si    c    0.537084 *  0.136716 *  0.366642 *   0.00000    1.000000    
    134 Si    c    0.040828 *  0.945711 *  0.131120 *   0.00000    1.000000    
    135 Si    c    0.370361 *  0.202683 *  0.965887 *   0.00000    1.000000    
    136 Si    c    0.819496 *  0.702984 *  0.939524 *   0.00000    1.000000    
    137 Si    c    0.545291 *  0.880874 *  0.238450 *   0.00000    1.000000    
    138 Si    c    0.180162 *  0.632390 *  0.927024 *   0.00000    1.000000    
    139 Si    c    0.769975 *  0.916079 *  0.195747 *   0.00000    1.000000    
    140 Si    c    0.006923 *  0.864383 *  0.778523 *   0.00000    1.000000    
    141 Si    c    0.794698 *  0.417663 *  0.709249 *   0.00000    1.000000    
    142 Si    c    0.652800 *  0.527352 *  0.155528 *   0.00000    1.000000    
    143 Si    c    0.056169 *  0.331299 *  0.620548 *   0.00000    1.000000    
    144 Si    c    0.278028 *  0.499789 *  0.003341 *   0.00000    1.000000    
    145 Si    c    0.473353 *  0.684107 *  0.042305 *   0.00000    1.000000    
    146 Si    c    0.121051 *  0.019269 *  0.558744 *   0.00000    1.000000    
    147 Si    c    0.574071 *  0.376567 *  0.937035 *   0.00000    1.000000    
    148 Si    c    0.281016 *  0.955271 *  0.931533 *   0.00000    1.000000    
    149 Si    c    0.703249 *  0.396689 *  0.756768 *   0.00000    1.000000    
    150 Si    c    0.894008 *  0.125879 *  0.409707 *   0.00000    1.000000    
    151 Si    c    0.507843 *  0.389708 *  0.287465 *   0.00000    1.000000    
    152 Si    c    0.288181 *  0.369687 *  0.180340 *   0.00000    1.000000    
    153 Si    c    0.032611 *  0.545315 *  0.811958 *   0.00000    1.000000    
    154 Si    c    0.622614 *  0.393566 *  0.409239 *   0.00000    1.000000    
    155 Si    c    0.796113 *  0.159607 *  0.257247 *   0.00000    1.000000    
    156 Si    c    0.029715 *  0.174685 *  0.499420 *   0.00000    1.000000    
    157 Si    c    0.844030 *  0.146889 *  0.919418 *   0.00000    1.000000    
    158 Si    c    0.493720 *  0.615493 *  0.595426 *   0.00000    1.000000    
    159 Si    c    0.024084 *  0.359804 *  0.523948 *   0.00000    1.000000    
    160 Si    c    0.327310 *  0.716961 *  0.959093 *   0.00000    1.000000    
    161 Si    c    0.532750 *  0.971167 *  0.978202 *   0.00000    1.000000    
    162 Si    c    0.223458 *  0.974879 *  0.549404 *   0.00000    1.000000    
    163 Si    c    0.047978 *  0.409629 *  0.119366 *   0.00000    1.000000    
    164 Si    c    0.299432 *  0.859051 *  0.317246 *   0.00000    1.000000    
    165 Si    c    0.851244 *  0.049923 *  0.121828 *   0.00000    1.000000    
    166 Si    c    0.620897 *  0.258913 *  0.505389 *   0.00000    1.000000    
    167 Si    c    0.865657 *  0.966761 *  0.185037 *   0.00000    1.000000    
    168 Si    c    0.650875 *  0.926376 *  0.493129 *   0.00000    1.000000    
    169 Si    c    0.000639 *  0.591610 *  0.902434 *   0.00000    1.000000    
    170 Si    c    0.129958 *  0.422769 *  0.756762 *   0.00000    1.000000    
    171 Si    c    0.323470 *  0.712301 *  0.418936 *   0.00000    1.000000    
    172 Si    c    0.659699 *  0.530065 *  0.267386 *   0.00000    1.000000    
    173 Si    c    0.048584 *  0.982729 *  0.487443 *   0.00000    1.000000    
    174 Si    c    0.357992 *  0.597708 *  0.140676 *   0.00000    1.000000    
    175 Si    c    0.517461 *  0.539457 *  0.391789 *   0.00000    1.000000    
    176 Si    c    0.895874 *  0.541122 *  0.465887 *   0.00000    1.000000    
    177 Si    c    0.910613 *  0.935013 *  0.407072 *   0.00000    1.000000    
    178 Si    c    0.563782 *  0.780400 *  0.198283 *   0.00000    1.000000    
    179 Si    c    0.886339 *  0.902774 *  0.032936 *   0.00000    1.000000    
    180 Si    c    0.495919 *  0.794282 *  0.549104 *   0.00000    1.000000    
    181 Si    c    0.211733 *  0.897260 *  0.267246 *   0.00000    1.000000    
    182 Si    c    0.593198 *  0.680013 *  0.352496 *   0.00000    1.000000    
    183 Si    c    0.377123 *  0.522226 *  0.483120 *   0.00000    1.000000    
    184 Si    c    0.442983 *  0.700667 *  0.547512 *   0.00000    1.000000    
    185 Si    c    0.238982 *  0.001697 *  0.271255 *   0.00000    1.000000    
    186 Si    c    0.988901 *  0.080698 *  0.206444 *   0.00000    1.000000    
    187 Si    c    0.147455 *  0.271262 *  0.497210 *   0.00000    1.000000    
    188 Si    c    0.835416 *  0.566569 *  0.227343 *   0.00000    1.000000    
    189 Si    c    0.126489 *  0.807731 *  0.659243 *   0.00000    1.000000    
    190 Si    c    0.565556 *  0.627348 *  0.054495 *   0.00000    1.000000    
    191 Si    c    0.847005 *  0.253804 *  0.262366 *   0.00000    1.000000    
    192 Si    c    0.901221 *  0.274549 *  0.714567 *   0.00000    1.000000    
    193 Si    c    0.993840 *  0.246855 *  0.052070 *   0.00000    1.000000    
    194 Si    c    0.792092 *  0.393897 *  0.606485 *   0.00000    1.000000    
    195 Si    c    0.486959 *  0.109912 *  0.770476 *   0.00000    1.000000    
    196 Si    c    0.591116 *  0.890074 *  0.666137 *   0.00000    1.000000    
    197 Si    c    0.306662 *  0.773744 *  0.774242 *   0.00000    1.000000    
    198 Si    c    0.672690 *  0.811170 *  0.800194 *   0.00000    1.000000    
    199 Si    c    0.742995 *  0.389150 *  0.964008 *   0.00000    1.000000    
    200 Si    c    0.491039 *  0.109310 *  0.661833 *   0.00000    1.000000    
    201 Si    c    0.045984 *  0.275129 *  0.463229 *   0.00000    1.000000    
    202 Si    c    0.579398 *  0.790562 *  0.087634 *   0.00000    1.000000    
    203 Si    c    0.310411 *  0.226159 *  0.721200 *   0.00000    1.000000    
    204 Si    c    0.758476 *  0.792920 *  0.954142 *   0.00000    1.000000    
    205 Si    c    0.734697 *  0.310160 *  0.816365 *   0.00000    1.000000    
    206 Si    c    0.761587 *  0.829836 *  0.648638 *   0.00000    1.000000    
    207 Si    c    0.545859 *  0.237174 *  0.236323 *   0.00000    1.000000    
    208 Si    c    0.295625 *  0.345517 *  0.463149 *   0.00000    1.000000    
    209 Si    c    0.723991 *  0.384653 *  0.471610 *   0.00000    1.000000    
    210 Si    c    0.688918 *  0.981196 *  0.928591 *   0.00000    1.000000    
    211 Si    c    0.798570 *  0.778552 *  0.434585 *   0.00000    1.000000    
    212 Si    c    0.704999 *  0.124465 *  0.473080 *   0.00000    1.000000    
    213 Si    c    0.506451 *  0.600830 *  0.223292 *   0.00000    1.000000    
    214 Si    c    0.770362 *  0.848698 *  0.360431 *   0.00000    1.000000    
    215 Si    c    0.360857 *  0.986513 *  0.667827 *   0.00000    1.000000    
    216 Si    c    0.555338 *  0.524458 *  0.495010 *   0.00000    1.000000    
    217 Si    c    0.217217 *  0.051824 *  0.745699 *   0.00000    1.000000    
    218 Si    c    0.332542 *  0.756130 *  0.320522 *   0.00000    1.000000    
    219 Si    c    0.374970 *  0.020472 *  0.482325 *   0.00000    1.000000    
    220 Si    c    0.274231 *  0.325946 *  0.731597 *   0.00000    1.000000    
    221 Si    c    0.051365 *  0.172645 *  0.683583 *   0.00000    1.000000    
    222 Si    c    0.126840 *  0.140164 *  0.007457 *   0.00000    1.000000    
    223 Si    c    0.119989 *  0.886873 *  0.321256 *   0.00000    1.000000    
    224 Si    c    0.837628 *  0.314869 *  0.867026 *   0.00000    1.000000    
    225 Si    c    0.931773 *  0.881567 *  0.705520 *   0.00000    1.000000    
    226 Si    c    0.097064 *  0.617987 *  0.769051 *   0.00000    1.000000    
    227 Si    c    0.966100 *  0.673777 *  0.662422 *   0.00000    1.000000    
    228 Si    c    0.120004 *  0.929573 *  0.890560 *   0.00000    1.000000    
    229 Si    c    0.253341 *  0.715321 *  0.263893 *   0.00000    1.000000    
    230 Si    c    0.183286 *  0.168462 *  0.488062 *   0.00000    1.000000    
    231 Si    c    0.970161 *  0.569841 *  0.635698 *   0.00000    1.000000    
    232 Si    c    0.797947 *  0.575195 *  0.607309 *   0.00000    1.000000    
    233 Si    c    0.325346 *  0.606846 *  0.783892 *   0.00000    1.000000    
    234 Si    c    0.095539 *  0.632361 *  0.226495 *   0.00000    1.000000    
    235 Si    c    0.162216 *  0.101378 *  0.401805 *   0.00000    1.000000    
    236 Si    c    0.354526 *  0.554461 *  0.310265 *   0.00000    1.000000    
    237 Si    c    0.575906 *  0.501298 *  0.825902 *   0.00000    1.000000    
    238 Si    c    0.463654 *  0.304149 *  0.515167 *   0.00000    1.000000    
    239 Si    c    0.264396 *  0.244204 *  0.094820 *   0.00000    1.000000    
    240 Si    c    0.210526 *  0.443005 *  0.319802 *   0.00000    1.000000    
    241 Si    c    0.667101 *  0.663912 *  0.433088 *   0.00000    1.000000    
    242 Si    c    0.317738 *  0.191437 *  0.820433 *   0.00000    1.000000    
    243 Si    c    0.993455 *  0.233052 *  0.946153 *   0.00000    1.000000    
    244 Si    c    0.968682 *  0.342137 *  0.091858 *   0.00000    1.000000    
    245 Si    c    0.903963 *  0.228868 *  0.885403 *   0.00000    1.000000    
    246 Si    c    0.821783 *  0.735727 *  0.093513 *   0.00000    1.000000    
    247 Si    c    0.892798 *  0.297649 *  0.350719 *   0.00000    1.000000    
    248 Si    c    0.610966 *  0.155016 *  0.524900 *   0.00000    1.000000    
    249 Si    c    0.473250 *  0.598552 *  0.698730 *   0.00000    1.000000    
    250 Si    c    0.309202 *  0.264501 *  0.394195 *   0.00000    1.000000    
    251 Si    c    0.270845 *  0.197322 *  0.192971 *   0.00000    1.000000    
    252 Si    c    0.347369 *  0.180398 *  0.449695 *   0.00000    1.000000    
    253 Si    c    0.487343 *  0.129645 *  0.918865 *   0.00000    1.000000    
    254 Si    c    0.128323 *  0.251652 *  0.823818 *   0.00000    1.000000    
    255 Si    c    0.353359 *  0.887315 *  0.152744 *   0.00000    1.000000    
    256 Si    c    0.923667 *  0.684826 *  0.339394 *   0.00000    1.000000    
    257 Si    c    0.928442 *  0.848515 *  0.278831 *   0.00000    1.000000    
    258 Si    c    0.932902 *  0.244693 *  0.202407 *   0.00000    1.000000    
    259 Si    c    0.316418 *  0.027679 *  0.575254 *   0.00000    1.000000    
    260 Si    c    0.819549 *  0.845900 *  0.266225 *   0.00000    1.000000    
    261 Si    c    0.682884 *  0.056935 *  0.393659 *   0.00000    1.000000    
    262 Si    c    0.333651 *  0.082251 *  0.402627 *   0.00000    1.000000    
    263 Si    c    0.207152 *  0.513949 *  0.078413 *   0.00000    1.000000    
    264 Si    c    0.602996 *  0.122455 *  0.012431 *   0.00000    1.000000    
    265 Si    c    0.540288 *  0.040500 *  0.894494 *   0.00000    1.000000    
    266 Si    c    0.103960 *  0.642585 *  0.337610 *   0.00000    1.000000    
    267 Si    c    0.220204 *  0.948340 *  0.444595 *   0.00000    1.000000    
    268 Si    c    0.423023 *  0.677585 *  0.442774 *   0.00000    1.000000    
    269 Si    c    0.312239 *  0.129742 *  0.606483 *   0.00000    1.000000    
    270 Si    c    0.511789 *  0.990817 *  0.396992 *   0.00000    1.000000    
    271 Si    c    0.892612 *  0.433669 *  0.597163 *   0.00000    1.000000    
    272 Si    c    0.951795 *  0.050871 *  0.733274 *   0.00000    1.000000    
    273 Si    c    0.362324 *  0.882953 *  0.638986 *   0.00000    1.000000    
    274 Si    c    0.206962 *  0.493150 *  0.731079 *   0.00000    1.000000    
    275 Si    c    0.911159 *  0.027974 *  0.259977 *   0.00000    1.000000    
    276 Si    c    0.649609 *  0.053375 *  0.640674 *   0.00000    1.000000    
    277 Si    c    0.238189 *  0.289666 *  0.236351 *   0.00000    1.000000    
    278 Si    c    0.414258 *  0.543451 *  0.220441 *   0.00000    1.000000    
    279 Si    c    0.913342 *  0.641852 *  0.237717 *   0.00000    1.000000    
    280 Si    c    0.557572 *  0.587118 *  0.885412 *   0.00000    1.000000    
    281 Si    c    0.257795 *  0.889588 *  0.610739 *   0.00000    1.000000    
    282 Si    c    0.639848 *  0.706172 *  0.061572 *   0.00000    1.000000    
    283 Si    c    0.005452 *  0.026709 *  0.821218 *   0.00000    1.000000    
    284 Si    c    0.400767 *  0.329035 *  0.596234 *   0.00000    1.000000    
    285 Si    c    0.990586 *  0.506574 *  0.273385 *   0.00000    1.000000    
    286 Si    c    0.592160 *  0.356269 *  0.138884 *   0.00000    1.000000    
    287 Si    c    0.731766 *  0.987352 *  0.027507 *   0.00000    1.000000    
    288 Si    c    0.480451 *  0.780080 *  0.722914 *   0.00000    1.000000    
    289 Si    c    0.186934 *  0.339203 *  0.794806 *   0.00000    1.000000    
    290 Si    c    0.512660 *  0.423416 *  0.860984 *   0.00000    1.000000    
    291 Si    c    0.070143 *  0.040555 *  0.398526 *   0.00000    1.000000    
    292 Si    c    0.150902 *  0.286670 *  0.603726 *   0.00000    1.000000    
    293 Si    c    0.704940 *  0.752821 *  0.484970 *   0.00000    1.000000    
    294 Si    c    0.228376 *  0.659079 *  0.669104 *   0.00000    1.000000    
    295 Si    c    0.431255 *  0.289371 *  0.112860 *   0.00000    1.000000    
    296 Si    c    0.765414 *  0.014320 *  0.342581 *   0.00000    1.000000    
    297 Si    c    0.947933 *  0.905330 *  0.941656 *   0.00000    1.000000    
    298 Si    c    0.161242 *  0.736063 *  0.321542 *   0.00000    1.000000    
    299 Si    c    0.754151 *  0.952443 *  0.501423 *   0.00000    1.000000    
    300 Si    c    0.252617 *  0.761045 *  0.164228 *   0.00000    1.000000    
    301 Si    c    0.590269 *  0.337426 *  0.241321 *   0.00000    1.000000    
    302 Si    c    0.247032 *  0.643089 *  0.458181 *   0.00000    1.000000    
    303 Si    c    0.638570 *  0.593835 *  0.513120 *   0.00000    1.000000    
    304 Si    c    0.122983 *  0.511178 *  0.008967 *   0.00000    1.000000    
    305 Si    c    0.952175 *  0.813057 *  0.181029 *   0.00000    1.000000    
    306 Si    c    0.355482 *  0.428530 *  0.430705 *   0.00000    1.000000    
    307 Si    c    0.826409 *  0.322478 *  0.971460 *   0.00000    1.000000    
    308 Si    c    0.688243 *  0.232452 *  0.935363 *   0.00000    1.000000    
    309 Si    c    0.633497 *  0.077227 *  0.920150 *   0.00000    1.000000    
    310 Si    c    0.363828 *  0.754238 *  0.862522 *   0.00000    1.000000    
    311 Si    c    0.493045 *  0.277069 *  0.737413 *   0.00000    1.000000    
    312 Si    c    0.453991 *  0.309368 *  0.341493 *   0.00000    1.000000    
    313 Si    c    0.837845 *  0.000630 *  0.029634 *   0.00000    1.000000    
    314 Si    c    0.068421 *  0.105775 *  0.849304 *   0.00000    1.000000    
    315 Si    c    0.031113 *  0.487603 *  0.052262 *   0.00000    1.000000    
    316 Si    c    0.360181 *  0.283413 *  0.302277 *   0.00000    1.000000    
    317 Si    c    0.086439 *  0.604434 *  0.970077 *   0.00000    1.000000    
    318 Si    c    0.151116 *  0.175623 *  0.327054 *   0.00000    1.000000    
    319 Si    c    0.895430 *  0.062016 *  0.964150 *   0.00000    1.000000    
    320 Si    c    0.486404 *  0.236302 *  0.875453 *   0.00000    1.000000    
    321 Si    c    0.509974 *  0.420617 *  0.690478 *   0.00000    1.000000    
    322 Si    c    0.452264 *  0.210218 *  0.185628 *   0.00000    1.000000    
    323 Si    c    0.686454 *  0.441497 *  0.330121 *   0.00000    1.000000    
    324 Si    c    0.158295 *  0.460534 *  0.917400 *   0.00000    1.000000    
    325 Si    c    0.889831 *  0.693571 *  0.021837 *   0.00000    1.000000    
    326 Si    c    0.943424 *  0.101159 *  0.111137 *   0.00000    1.000000    
    327 Si    c    0.591460 *  0.142608 *  0.631552 *   0.00000    1.000000    
    328 Si    c    0.040310 *  0.137927 *  0.947952 *   0.00000    1.000000    
    329 Si    c    0.052442 *  0.874788 *  0.483766 *   0.00000    1.000000    
    330 Si    c    0.303546 *  0.301755 *  0.559654 *   0.00000    1.000000    
    331 Si    c    0.529184 *  0.811468 *  0.446819 *   0.00000    1.000000    
    332 Si    c    0.294007 *  0.575886 *  0.527198 *   0.00000    1.000000    
    333 Si    c    0.886912 *  0.808835 *  0.491363 *   0.00000    1.000000    
    334 Si    c    0.161302 *  0.294757 *  0.960086 *   0.00000    1.000000    
    335 Si    c    0.701551 *  0.441924 *  0.564653 *   0.00000    1.000000    
    336 Si    c    0.373136 *  0.265399 *  0.878426 *   0.00000    1.000000    
    337 Si    c    0.631949 *  0.877621 *  0.053845 *   0.00000    1.000000    
    338 Si    c    0.320015 *  0.013919 *  0.766508 *   0.00000    1.000000    
    339 Si    c    0.260849 *  0.608792 *  0.285370 *   0.00000    1.000000    
    340 Si    c    0.164139 *  0.458631 *  0.481139 *   0.00000    1.000000    
    341 Si    c    0.139601 *  0.361086 *  0.130031 *   0.00000    1.000000    
    342 Si    c    0.695027 *  0.189493 *  0.280603 *   0.00000    1.000000    
    343 Si    c    0.825519 *  0.547375 *  0.118057 *   0.00000    1.000000    
    344 Si    c    0.050450 *  0.910151 *  0.969961 *   0.00000    1.000000    
    345 Si    c    0.441550 *  0.434740 *  0.216686 *   0.00000    1.000000    
    346 Si    c    0.629028 *  0.534782 *  0.676042 *   0.00000    1.000000    
    347 Si    c    0.727960 *  0.682924 *  0.118599 *   0.00000    1.000000    
    348 Si    c    0.816687 *  0.681303 *  0.593356 *   0.00000    1.000000    
    349 Si    c    0.861793 *  0.551716 *  0.779794 *   0.00000    1.000000    
    350 Si    c    0.071088 *  0.948034 *  0.798329 *   0.00000    1.000000    
    351 Si    c    0.800057 *  0.911225 *  0.590164 *   0.00000    1.000000    
    352 Si    c    0.635560 *  0.745869 *  0.276328 *   0.00000    1.000000    
    353 Si    c    0.049001 *  0.821024 *  0.581995 *   0.00000    1.000000    
    354 Si    c    0.613994 *  0.904498 *  0.945557 *   0.00000    1.000000    
    355 Si    c    0.342327 *  0.018085 *  0.240844 *   0.00000    1.000000    
    356 Si    c    0.952306 *  0.211525 *  0.562634 *   0.00000    1.000000    
    357 Si    c    0.912695 *  0.202905 *  0.106748 *   0.00000    1.000000    
    358 Si    c    0.059593 *  0.974273 *  0.311389 *   0.00000    1.000000    
    359 Si    c    0.266858 *  0.791285 *  0.462689 *   0.00000    1.000000    
    360 Si    c    0.004576 *  0.082226 *  0.646241 *   0.00000    1.000000    
    361 Si    c    0.072443 *  0.012509 *  0.210510 *   0.00000    1.000000    
    362 Si    c    0.607090 *  0.962672 *  0.587864 *   0.00000    1.000000    
    363 Si    c    0.286869 *  0.171649 *  0.022022 *   0.00000    1.000000    
    364 Si    c    0.138428 *  0.975028 *  0.717110 *   0.00000    1.000000    
    365 Si    c    0.714335 *  0.130232 *  0.787359 *   0.00000    1.000000    
    366 Si    c    0.272492 *  0.789412 *  0.568725 *   0.00000    1.000000    
    367 Si    c    0.201196 *  0.856791 *  0.166923 *   0.00000    1.000000    
    368 Si    c    0.318248 *  0.454555 *  0.331792 *   0.00000    1.000000    
    369 Si    c    0.634347 *  0.052240 *  0.236235 *   0.00000    1.000000    
    370 Si    c    0.205502 *  0.691513 *  0.099182 *   0.00000    1.000000    
    371 Si    c    0.581812 *  0.970265 *  0.078546 *   0.00000    1.000000    
    372 Si    c    0.083266 *  0.821486 *  0.021762 *   0.00000    1.000000    
    373 Si    c    0.805972 *  0.236270 *  0.675742 *   0.00000    1.000000    
    374 Si    c    0.472694 *  0.891989 *  0.398374 *   0.00000    1.000000    
    375 Si    c    0.654348 *  0.046995 *  0.747182 *   0.00000    1.000000    
    376 Si    c    0.239707 *  0.145362 *  0.686164 *   0.00000    1.000000    
    377 Si    c    0.889898 *  0.536103 *  0.572871 *   0.00000    1.000000    
    378 Si    c    0.497910 *  0.133338 *  0.035083 *   0.00000    1.000000    
    379 Si    c    0.346331 *  0.443294 *  0.847592 *   0.00000    1.000000    
    380 Si    c    0.881033 *  0.731658 *  0.183243 *   0.00000    1.000000    
    381 Si    c    0.486753 *  0.682307 *  0.765374 *   0.00000    1.000000    
    382 Si    c    0.318847 *  0.359961 *  0.909904 *   0.00000    1.000000    
    383 Si    c    0.079952 *  0.456819 *  0.843882 *   0.00000    1.000000    
    384 Si    c    0.965654 *  0.447135 *  0.977852 *   0.00000    1.000000    
    385 Si    c    0.743132 *  0.394499 *  0.071692 *   0.00000    1.000000    
    386 Si    c    0.194092 *  0.884628 *  0.697638 *   0.00000    1.000000    
    387 Si    c    0.878414 *  0.070891 *  0.501922 *   0.00000    1.000000    
    388 Si    c    0.056305 *  0.784135 *  0.182563 *   0.00000    1.000000    
    389 Si    c    0.668449 *  0.729472 *  0.961142 *   0.00000    1.000000    
    390 Si    c    0.099349 *  0.207236 *  0.188201 *   0.00000    1.000000    
    391 Si    c    0.928003 *  0.995673 *  0.889782 *   0.00000    1.000000    
    392 Si    c    0.148623 *  0.185387 *  0.640442 *   0.00000    1.000000    
    393 Si    c    0.956183 *  0.948000 *  0.311697 *   0.00000    1.000000    
    394 Si    c    0.406673 *  0.659212 *  0.830516 *   0.00000    1.000000    
    395 Si    c    0.783627 *  0.127673 *  0.154097 *   0.00000    1.000000    
    396 Si    c    0.718157 *  0.961828 *  0.749363 *   0.00000    1.000000    
    397 Si    c    0.428891 *  0.847933 *  0.970938 *   0.00000    1.000000    
    398 Si    c    0.988796 *  0.254395 *  0.651654 *   0.00000    1.000000    
    399 Si    c    0.519218 *  0.955918 *  0.164545 *   0.00000    1.000000    
    400 Si    c    0.192084 *  0.359195 *  0.456791 *   0.00000    1.000000    
    401 Si    c    0.732531 *  0.896857 *  0.091088 *   0.00000    1.000000    
    402 Si    c    0.020903 *  0.689543 *  0.751324 *   0.00000    1.000000    
    403 Si    c    0.055710 *  0.992429 *  0.036342 *   0.00000    1.000000    
    404 Si    c    0.901044 *  0.898178 *  0.556005 *   0.00000    1.000000    
    405 Si    c    0.355323 *  0.727224 *  0.605212 *   0.00000    1.000000    
    406 Si    c    0.666349 *  0.827993 *  0.344700 *   0.00000    1.000000    
    407 Si    c    0.470333 *  0.112454 *  0.142328 *   0.00000    1.000000    
    408 Si    c    0.761562 *  0.837895 *  0.856948 *   0.00000    1.000000    
    409 Si    c    0.199890 *  0.601718 *  0.372049 *   0.00000    1.000000    
    410 Si    c    0.904458 *  0.710085 *  0.526724 *   0.00000    1.000000    
    411 Si    c    0.069431 *  0.355946 *  0.311772 *   0.00000    1.000000    
    412 Si    c    0.043093 *  0.192856 *  0.334943 *   0.00000    1.000000    
    413 Si    c    0.572036 *  0.583643 *  0.308157 *   0.00000    1.000000    
    414 Si    c    0.065785 *  0.648987 *  0.521372 *   0.00000    1.000000    
    415 Si    c    0.508958 *  0.776766 *  0.000760 *   0.00000    1.000000    
    416 Si    c    0.275192 *  0.517857 *  0.816097 *   0.00000    1.000000    
    417 Si    c    0.262833 *  0.875341 *  0.004729 *   0.00000    1.000000    
    418 Si    c    0.047607 *  0.658337 *  0.054843 *   0.00000    1.000000    
    419 Si    c    0.724427 *  0.282967 *  0.505200 *   0.00000    1.000000    
    420 Si    c    0.009888 *  0.179795 *  0.236710 *   0.00000    1.000000    
    421 Si    c    0.065415 *  0.298919 *  0.905184 *   0.00000    1.000000    
    422 Si    c    0.332466 *  0.327528 *  0.092895 *   0.00000    1.000000    
    423 Si    c    0.363945 *  0.557482 *  0.039289 *   0.00000    1.000000    
    424 Si    c    0.232577 *  0.538573 *  0.911425 *   0.00000    1.000000    
    425 Si    c    0.939147 *  0.981781 *  0.498161 *   0.00000    1.000000    
    426 Si    c    0.810130 *  0.099968 *  0.827967 *   0.00000    1.000000    
    427 Si    c    0.539334 *  0.517230 *  0.726754 *   0.00000    1.000000    
    428 Si    c    0.356205 *  0.386147 *  0.259194 *   0.00000    1.000000    
    429 Si    c    0.939237 *  0.208470 *  0.788843 *   0.00000    1.000000    
    430 Si    c    0.163979 *  0.673954 *  0.830990 *   0.00000    1.000000    
    431 Si    c    0.433596 *  0.882537 *  0.557351 *   0.00000    1.000000    
    432 Si    c    0.950852 *  0.833062 *  0.863705 *   0.00000    1.000000    
    433 Si    c    0.574012 *  0.752681 *  0.913773 *   0.00000    1.000000    
    434 Si    c    0.804628 *  0.741277 *  0.259567 *   0.00000    1.000000    
    435 Si    c    0.183324 *  0.807118 *  0.976995 *   0.00000    1.000000    
    436 Si    c    0.826537 *  0.652585 *  0.772949 *   0.00000    1.000000    
    437 Si    c    0.503513 *  0.469939 *  0.076993 *   0.00000    1.000000    
    438 Si    c    0.716118 *  0.692167 *  0.226716 *   0.00000    1.000000    
    439 Si    c    0.725057 *  0.743154 *  0.593268 *   0.00000    1.000000    
    440 Si    c    0.416472 *  0.577317 *  0.400418 *   0.00000    1.000000    
    441 Si    c    0.164347 *  0.768003 *  0.427034 *   0.00000    1.000000    
    442 Si    c    0.246018 *  0.598300 *  0.132959 *   0.00000    1.000000    
    443 Si    c    0.842194 *  0.996536 *  0.827735 *   0.00000    1.000000    
    444 Si    c    0.221115 *  0.019890 *  0.099929 *   0.00000    1.000000    
    445 Si    c    0.554046 *  0.791168 *  0.642120 *   0.00000    1.000000    
    446 Si    c    0.054124 *  0.538386 *  0.363185 *   0.00000    1.000000    
    447 Si    c    0.749712 *  0.484059 *  0.913050 *   0.00000    1.000000    
    448 Si    c    0.772942 *  0.056231 *  0.521275 *   0.00000    1.000000    
    449 Si    c    0.103783 *  0.695706 *  0.138548 *   0.00000    1.000000    
    450 Si    c    0.701714 *  0.551761 *  0.754374 *   0.00000    1.000000    
    451 Si    c    0.141571 *  0.873600 *  0.425011 *   0.00000    1.000000    
    452 Si    c    0.166701 *  0.282606 *  0.067526 *   0.00000    1.000000    
    453 Si    c    0.179902 *  0.148123 *  0.225259 *   0.00000    1.000000    
    454 Si    c    0.749744 *  0.298171 *  0.120491 *   0.00000    1.000000    
    455 Si    c    0.894258 *  0.388035 *  0.031589 *   0.00000    1.000000    
    456 Si    c    0.006265 *  0.393261 *  0.889865 *   0.00000    1.000000    
    457 Si    c    0.368541 *  0.912365 *  0.256377 *   0.00000    1.000000    
    458 Si    c    0.609012 *  0.286349 *  0.401400 *   0.00000    1.000000    
    459 Si    c    0.603493 *  0.559212 *  0.979162 *   0.00000    1.000000    
    460 Si    c    0.896764 *  0.588669 *  0.045710 *   0.00000    1.000000    
    461 Si    c    0.499772 *  0.727743 *  0.385347 *   0.00000    1.000000    
    462 Si    c    0.525139 *  0.433299 *  0.384917 *   0.00000    1.000000    
    463 Si    c    0.280240 *  0.196099 *  0.530250 *   0.00000    1.000000    
    464 Si    c    0.645670 *  0.422244 *  0.662835 *   0.00000    1.000000    
    465 Si    c    0.681952 *  0.476113 *  0.826232 *   0.00000    1.000000    
    466 Si    c    0.366767 *  0.189096 *  0.248319 *   0.00000    1.000000    
    467 Si    c    0.625542 *  0.916776 *  0.307022 *   0.00000    1.000000    
    468 Si    c    0.791146 *  0.524041 *  0.705276 *   0.00000    1.000000    
    469 Si    c    0.456115 *  0.233905 *  0.024869 *   0.00000    1.000000    
    470 Si    c    0.833642 *  0.440923 *  0.104830 *   0.00000    1.000000    
    471 Si    c    0.060981 *  0.459464 *  0.501335 *   0.00000    1.000000    
    472 Si    c    0.616145 *  0.973120 *  0.401763 *   0.00000    1.000000    
    473 Si    c    0.652596 *  0.711701 *  0.763626 *   0.00000    1.000000    
    474 Si    c    0.351198 *  0.468201 *  0.675689 *   0.00000    1.000000    
    475 Si    c    0.571508 *  0.680541 *  0.830893 *   0.00000    1.000000    
    476 Si    c    0.175271 *  0.045851 *  0.196774 *   0.00000    1.000000    
    477 Si    c    0.741752 *  0.598864 *  0.275461 *   0.00000    1.000000    
    478 Si    c    0.843142 *  0.085409 *  0.320546 *   0.00000    1.000000    
    479 Si    c    0.168272 *  0.353371 *  0.354788 *   0.00000    1.000000    
    480 Si    c    0.316964 *  0.628338 *  0.619607 *   0.00000    1.000000    
    481 Si    c    0.028141 *  0.431046 *  0.391008 *   0.00000    1.000000    
    482 Si    c    0.069941 *  0.783913 *  0.749289 *   0.00000    1.000000    
    483 Si    c    0.989968 *  0.902718 *  0.618902 *   0.00000    1.000000    
    484 Si    c    0.298255 *  0.882128 *  0.421266 *   0.00000    1.000000    
    485 Si    c    0.802454 *  0.937810 *  0.406202 *   0.00000    1.000000    
    486 Si    c    0.456936 *  0.864653 *  0.296044 *   0.00000    1.000000    
    487 Si    c    0.757228 *  0.068246 *  0.625304 *   0.00000    1.000000    
    488 Si    c    0.598165 *  0.425204 *  0.515717 *   0.00000    1.000000    
    489 Si    c    0.421333 *  0.469125 *  0.007817 *   0.00000    1.000000    
    490 Si    c    0.358853 *  0.395187 *  0.754568 *   0.00000    1.000000    
    491 Si    c    0.158132 *  0.505808 *  0.385845 *   0.00000    1.000000    
    492 Si    c    0.752956 *  0.215013 *  0.430865 *   0.00000    1.000000    
    493 Si    c    0.723582 *  0.644019 *  0.804826 *   0.00000    1.000000    
    494 Si    c    0.379441 *  0.098792 *  0.807539 *   0.00000    1.000000    
    495 Si    c    0.111379 *  0.765333 *  0.846653 *   0.00000    1.000000    
    496 Si    c    0.553353 *  0.193497 *  0.796637 *   0.00000    1.000000    
    497 Si    c    0.727192 *  0.578623 *  0.090281 *   0.00000    1.000000    
    498 Si    c    0.683927 *  0.869702 *  0.712616 *   0.00000    1.000000    
    499 Si    c    0.413349 *  0.694412 *  0.132247 *   0.00000    1.000000    
    500 Si    c    0.527254 *  0.049261 *  0.214787 *   0.00000    1.000000    
    501 Si    c    0.384484 *  0.103433 *  0.916507 *   0.00000    1.000000    
    502 Si    c    0.060324 *  0.988460 *  0.639773 *   0.00000    1.000000    
    503 Si    c    0.440188 *  0.758261 *  0.299873 *   0.00000    1.000000    
    504 Si    c    0.432205 *  0.949142 *  0.007323 *   0.00000    1.000000    
    505 Si    c    0.461134 *  0.519320 *  0.551549 *   0.00000    1.000000    
    506 Si    c    0.771922 *  0.444822 *  0.395065 *   0.00000    1.000000    
    507 Si    c    0.955881 *  0.529828 *  0.736124 *   0.00000    1.000000    
    508 Si    c    0.046298 *  0.188833 *  0.787056 *   0.00000    1.000000    
    509 Si    c    0.550975 *  0.556554 *  0.133422 *   0.00000    1.000000    
    510 Si    c    0.649677 *  0.436066 *  0.099193 *   0.00000    1.000000    
    511 Si    c    0.852173 *  0.806410 *  0.706435 *   0.00000    1.000000    
    512 Si    c    0.973611 *  0.681173 *  0.849416 *   0.00000    1.000000    
--------------------------------------------------------------------------------


  Constraints : 

--------------------------------------------------------------------------------
  Constraint no.      Unconstrained     Constrained    Coefficient    Offset
                         Variable         Variable
--------------------------------------------------------------------------------
           1              Strain 1        Strain 2       1.00000      0.0000
           2              Strain 1        Strain 3       1.00000      0.0000
--------------------------------------------------------------------------------

  Brillouin zone sampling points :

--------------------------------------------------------------------------------
  Point number          x          y          z            Weight
--------------------------------------------------------------------------------
        1           0.000000   0.000000   0.000000     1.00000000
--------------------------------------------------------------------------------


********************************************************************************
*  General input information                                                   *
********************************************************************************

  Species output for all configurations : 

--------------------------------------------------------------------------------
  Species    Type    Atomic    Atomic    Charge       Radii (Angs)     Library
                     Number     Mass       (e)     Cova   Ionic  VDW   Symbol
--------------------------------------------------------------------------------
    Si       Core       14      28.09   0.000000   1.200  0.000  2.100          
--------------------------------------------------------------------------------


  Lattice summation method               =    Ewald          (3-D)
                                         =    Parry          (2-D)
                                         =    Saunders et al (1-D)
  Accuracy factor for lattice sums       =   12.000


  Analytic derivatives to be used

  Time limit = Infinity

  Maximum range for interatomic potentials =    100000.000000 Angstroms

  General interatomic potentials :

--------------------------------------------------------------------------------
Atom  Types   Potential      Parameter       Value         Units   Cutoffs(Ang)
  1     2                                                            Min /  Max 
--------------------------------------------------------------------------------
Si   c Si   c Still-Weber 2 SW2 A            15.284982    eV        0.000  3.771
                            SW2 rho          2.0951000    Ang       
                            SW2 B            11.603192    Ang^4     
--------------------------------------------------------------------------------

  General Three-body potentials :

--------------------------------------------------------------------------------
  Atoms       Potential      Parameter       Value         Units   Cutoffs(Ang)
  1 / 2 / 3                                                          Min /  Max 
--------------------------------------------------------------------------------
Si    core    StillingerWeb Three-body cnst  45.532601    eV        0.000  3.771
Si    core                  Three-body angl  109.47000    degrees   0.000  3.771
Si    core                  Three-body rho1  2.5141200    Ang       0.000  7.542
                            Three-body rho2  2.5141200    Ang       
--------------------------------------------------------------------------------

********************************************************************************
*  Output for configuration   1                                                *
********************************************************************************


  Components of energy : 

--------------------------------------------------------------------------------
  Interatomic potentials     =       -2246.00917990 eV    
  Three-body potentials      =         127.87369039 eV    
  Monopole - monopole (real) =           0.00000000 eV    
  Monopole - monopole (recip)=           0.00000000 eV    
  Monopole - monopole (total)=           0.00000000 eV    
--------------------------------------------------------------------------------
  Total lattice energy       =       -2118.13548952 eV    
--------------------------------------------------------------------------------
  Total lattice energy       =         -204367.6961 kJ/(mole unit cells)
--------------------------------------------------------------------------------


  Number of variables =     1533

  Maximum number of calculations  =          1000
  Maximum Hessian update interval =            10
  Maximum step size               =   1.000000000
  Maximum parameter tolerance     =   0.000010000
  Maximum function  tolerance     =   0.000010000
  Maximum gradient  tolerance     =   0.001000000
  Maximum gradient  component     =   0.010000000

  Symmetry not applied to optimisation

  Cell parameters to be optimised using strains

  Newton-Raphson optimiser to be used

  BFGS hessian update to be used

  Lower half triangular hessian to be used

  Start of bulk optimisation :

  Cycle:      0 Energy:     -2118.135490  Gnorm:      0.000011  CPU:   13.603

  XYZ File written as gulp.xyz



  **** Optimisation achieved ****


  Final energy =   -2118.13548952 eV
  Final Gnorm  =       0.00001080

  Components of energy : 

--------------------------------------------------------------------------------
  Interatomic potentials     =       -2246.00917990 eV    
  Three-body potentials      =         127.87369039 eV    
  Monopole - monopole (real) =           0.00000000 eV    
  Monopole - monopole (recip)=           0.00000000 eV    
  Monopole - monopole (total)=           0.00000000 eV    
--------------------------------------------------------------------------------
  Total lattice energy       =       -2118.13548952 eV    
--------------------------------------------------------------------------------
  Total lattice energy       =         -204367.6961 kJ/(mole unit cells)
--------------------------------------------------------------------------------

  Final fractional coordinates of atoms :

--------------------------------------------------------------------------------
   No.  Atomic        x           y          z          Radius
        Label       (Frac)      (Frac)     (Frac)       (Angs) 
--------------------------------------------------------------------------------
     1  Si    c     0.450613    0.589241    0.898876    0.000000
     2  Si    c     0.987279    0.073475    0.016246    0.000000
     3  Si    c     0.090537    0.209702    0.082493    0.000000
     4  Si    c     0.259524    0.918108    0.103938    0.000000
     5  Si    c     0.239103    0.032934    0.377427    0.000000
     6  Si    c     0.480744    0.034700    0.488948    0.000000
     7  Si    c     0.753814    0.622817    0.380169    0.000000
     8  Si    c     0.432432    0.482399    0.901098    0.000000
     9  Si    c     0.519494    0.133270    0.473407    0.000000
    10  Si    c     0.214534    0.512617    0.557751    0.000000
    11  Si    c     0.187159    0.007191    0.921048    0.000000
    12  Si    c     0.252106    0.683099    0.768630    0.000000
    13  Si    c     0.424646    0.955227    0.113890    0.000000
    14  Si    c     0.880522    0.275584    0.518874    0.000000
    15  Si    c     0.176479    0.841828    0.874773    0.000000
    16  Si    c     0.174349    0.081531    0.841315    0.000000
    17  Si    c     0.916029    0.117998    0.590749    0.000000
    18  Si    c     0.203710    0.192907    0.956445    0.000000
    19  Si    c     0.855124    0.807538    0.814988    0.000000
    20  Si    c     0.377250    0.788814    0.692233    0.000000
    21  Si    c     0.871154    0.708293    0.848140    0.000000
    22  Si    c     0.834883    0.136493    0.658366    0.000000
    23  Si    c     0.017701    0.758757    0.904749    0.000000
    24  Si    c     0.390094    0.914699    0.462865    0.000000
    25  Si    c     0.699036    0.266694    0.351102    0.000000
    26  Si    c     0.937854    0.907285    0.129588    0.000000
    27  Si    c     0.002757    0.125325    0.406791    0.000000
    28  Si    c     0.710898    0.563445    0.979465    0.000000
    29  Si    c     0.532894    0.238980    0.341829    0.000000
    30  Si    c     0.343052    0.804899    0.016661    0.000000
    31  Si    c     0.151667    0.036557    0.019573    0.000000
    32  Si    c     0.653413    0.049795    0.071018    0.000000
    33  Si    c     0.999985    0.588074    0.204237    0.000000
    34  Si    c     0.634856    0.715466    0.652635    0.000000
    35  Si    c     0.482396    0.707949    0.213467    0.000000
    36  Si    c     0.559610    0.329892    0.554855    0.000000
    37  Si    c     0.049485    0.700104    0.415862    0.000000
    38  Si    c     0.465826    0.004167    0.663937    0.000000
    39  Si    c     0.132323    0.576298    0.588313    0.000000
    40  Si    c     0.019439    0.561972    0.465435    0.000000
    41  Si    c     0.618094    0.228160    0.013084    0.000000
    42  Si    c     0.407383    0.251774    0.673267    0.000000
    43  Si    c     0.601559    0.620213    0.610696    0.000000
    44  Si    c     0.796337    0.289948    0.583571    0.000000
    45  Si    c     0.951530    0.350374    0.200629    0.000000
    46  Si    c     0.487564    0.380595    0.133937    0.000000
    47  Si    c     0.464115    0.373863    0.775415    0.000000
    48  Si    c     0.216473    0.261134    0.339276    0.000000
    49  Si    c     0.718320    0.229521    0.741953    0.000000
    50  Si    c     0.990680    0.577336    0.095904    0.000000
    51  Si    c     0.647527    0.268528    0.109839    0.000000
    52  Si    c     0.308716    0.071062    0.062904    0.000000
    53  Si    c     0.380797    0.049887    0.141582    0.000000
    54  Si    c     0.803480    0.832199    0.044481    0.000000
    55  Si    c     0.805692    0.211459    0.087037    0.000000
    56  Si    c     0.406305    0.855597    0.863619    0.000000
    57  Si    c     0.704861    0.973020    0.261817    0.000000
    58  Si    c     0.787279    0.218394    0.980015    0.000000
    59  Si    c     0.164507    0.693395    0.510803    0.000000
    60  Si    c     0.865518    0.702530    0.684905    0.000000
    61  Si    c     0.858408    0.402114    0.201433    0.000000
    62  Si    c     0.984911    0.776735    0.344638    0.000000
    63  Si    c     0.211987    0.365918    0.897773    0.000000
    64  Si    c     0.726600    0.648630    0.916033    0.000000
    65  Si    c     0.223483    0.707501    0.991422    0.000000
    66  Si    c     0.353458    0.019201    0.977804    0.000000
    67  Si    c     0.521179    0.940168    0.733952    0.000000
    68  Si    c     0.130075    0.305042    0.220960    0.000000
    69  Si    c     0.615507    0.226931    0.700391    0.000000
    70  Si    c     0.237854    0.345142    0.632217    0.000000
    71  Si    c     0.415435    0.166407    0.610016    0.000000
    72  Si    c     0.918557    0.538445    0.949135    0.000000
    73  Si    c     0.937681    0.647963    0.441807    0.000000
    74  Si    c     0.446364    0.370707    0.430206    0.000000
    75  Si    c     0.433028    0.433501    0.617369    0.000000
    76  Si    c     0.574791    0.329386    0.661636    0.000000
    77  Si    c     0.154985    0.471090    0.233821    0.000000
    78  Si    c     0.693202    0.348079    0.279043    0.000000
    79  Si    c     0.862785    0.406207    0.353593    0.000000
    80  Si    c     0.881682    0.126088    0.754114    0.000000
    81  Si    c     0.672488    0.333697    0.906421    0.000000
    82  Si    c     0.400469    0.638181    0.980620    0.000000
    83  Si    c     0.349537    0.782158    0.121816    0.000000
    84  Si    c     0.077325    0.794914    0.287320    0.000000
    85  Si    c     0.633829    0.114018    0.322954    0.000000
    86  Si    c     0.211586    0.181074    0.852039    0.000000
    87  Si    c     0.184987    0.572809    0.218132    0.000000
    88  Si    c     0.439560    0.197488    0.507258    0.000000
    89  Si    c     0.587848    0.456315    0.012321    0.000000
    90  Si    c     0.381814    0.093661    0.305722    0.000000
    91  Si    c     0.587203    0.841779    0.859195    0.000000
    92  Si    c     0.851490    0.496810    0.873857    0.000000
    93  Si    c     0.053909    0.506906    0.601601    0.000000
    94  Si    c     0.926929    0.441300    0.429539    0.000000
    95  Si    c     0.047261    0.427809    0.230603    0.000000
    96  Si    c     0.369392    0.572490    0.693941    0.000000
    97  Si    c     0.209270    0.435383    0.151182    0.000000
    98  Si    c     0.112256    0.127558    0.556082    0.000000
    99  Si    c     0.953320    0.432931    0.689220    0.000000
   100  Si    c     0.483338    0.059638    0.314445    0.000000
   101  Si    c     0.995880    0.742313    0.012061    0.000000
   102  Si    c     0.246315    0.859417    0.792244    0.000000
   103  Si    c     0.821233    0.704477    0.360702    0.000000
   104  Si    c     0.729909    0.540141    0.532380    0.000000
   105  Si    c     0.159751    0.581773    0.691347    0.000000
   106  Si    c     0.003754    0.288067    0.362691    0.000000
   107  Si    c     0.788777    0.540408    0.440808    0.000000
   108  Si    c     0.189337    0.736130    0.607132    0.000000
   109  Si    c     0.059667    0.422331    0.672827    0.000000
   110  Si    c     0.001732    0.720847    0.574004    0.000000
   111  Si    c     0.921978    0.375063    0.514032    0.000000
   112  Si    c     0.321280    0.925335    0.835029    0.000000
   113  Si    c     0.500823    0.968411    0.570842    0.000000
   114  Si    c     0.791669    0.979538    0.671892    0.000000
   115  Si    c     0.555209    0.026610    0.787727    0.000000
   116  Si    c     0.101564    0.857403    0.123352    0.000000
   117  Si    c     0.752988    0.943715    0.850121    0.000000
   118  Si    c     0.781901    0.327566    0.218875    0.000000
   119  Si    c     0.884307    0.478310    0.272373    0.000000
   120  Si    c     0.635434    0.828039    0.448981    0.000000
   121  Si    c     0.679202    0.103904    0.156440    0.000000
   122  Si    c     0.887206    0.375933    0.746275    0.000000
   123  Si    c     0.333667    0.400337    0.009163    0.000000
   124  Si    c     0.635135    0.198537    0.189147    0.000000
   125  Si    c     0.901410    0.401419    0.849910    0.000000
   126  Si    c     0.880798    0.972728    0.729242    0.000000
   127  Si    c     0.858382    0.227618    0.425545    0.000000
   128  Si    c     0.250297    0.452834    0.640610    0.000000
   129  Si    c     0.645536    0.165418    0.859430    0.000000
   130  Si    c     0.534505    0.278765    0.964740    0.000000
   131  Si    c     0.964704    0.843536    0.427417    0.000000
   132  Si    c     0.495578    0.856308    0.799723    0.000000
   133  Si    c     0.537084    0.136716    0.366642    0.000000
   134  Si    c     0.040828    0.945711    0.131120    0.000000
   135  Si    c     0.370361    0.202683    0.965887    0.000000
   136  Si    c     0.819496    0.702984    0.939524    0.000000
   137  Si    c     0.545291    0.880874    0.238450    0.000000
   138  Si    c     0.180162    0.632390    0.927024    0.000000
   139  Si    c     0.769975    0.916079    0.195747    0.000000
   140  Si    c     0.006923    0.864383    0.778523    0.000000
   141  Si    c     0.794698    0.417663    0.709249    0.000000
   142  Si    c     0.652800    0.527352    0.155528    0.000000
   143  Si    c     0.056169    0.331299    0.620548    0.000000
   144  Si    c     0.278028    0.499789    0.003341    0.000000
   145  Si    c     0.473353    0.684107    0.042305    0.000000
   146  Si    c     0.121051    0.019269    0.558744    0.000000
   147  Si    c     0.574071    0.376567    0.937035    0.000000
   148  Si    c     0.281016    0.955271    0.931533    0.000000
   149  Si    c     0.703249    0.396689    0.756768    0.000000
   150  Si    c     0.894008    0.125879    0.409707    0.000000
   151  Si    c     0.507843    0.389708    0.287465    0.000000
   152  Si    c     0.288181    0.369687    0.180340    0.000000
   153  Si    c     0.032611    0.545315    0.811958    0.000000
   154  Si    c     0.622614    0.393566    0.409239    0.000000
   155  Si    c     0.796113    0.159607    0.257247    0.000000
   156  Si    c     0.029715    0.174685    0.499420    0.000000
   157  Si    c     0.844030    0.146889    0.919418    0.000000
   158  Si    c     0.493720    0.615493    0.595426    0.000000
   159  Si    c     0.024084    0.359804    0.523948    0.000000
   160  Si    c     0.327310    0.716961    0.959093    0.000000
   161  Si    c     0.532750    0.971167    0.978202    0.000000
   162  Si    c     0.223458    0.974879    0.549404    0.000000
   163  Si    c     0.047978    0.409629    0.119366    0.000000
   164  Si    c     0.299432    0.859051    0.317246    0.000000
   165  Si    c     0.851244    0.049923    0.121828    0.000000
   166  Si    c     0.620897    0.258913    0.505389    0.000000
   167  Si    c     0.865657    0.966761    0.185037    0.000000
   168  Si    c     0.650875    0.926376    0.493129    0.000000
   169  Si    c     0.000639    0.591610    0.902434    0.000000
   170  Si    c     0.129958    0.422769    0.756762    0.000000
   171  Si    c     0.323470    0.712301    0.418936    0.000000
   172  Si    c     0.659699    0.530065    0.267386    0.000000
   173  Si    c     0.048584    0.982729    0.487443    0.000000
   174  Si    c     0.357992    0.597708    0.140676    0.000000
   175  Si    c     0.517461    0.539457    0.391789    0.000000
   176  Si    c     0.895874    0.541122    0.465887    0.000000
   177  Si    c     0.910613    0.935013    0.407072    0.000000
   178  Si    c     0.563782    0.780400    0.198283    0.000000
   179  Si    c     0.886339    0.902774    0.032936    0.000000
   180  Si    c     0.495919    0.794282    0.549104    0.000000
   181  Si    c     0.211733    0.897260    0.267246    0.000000
   182  Si    c     0.593198    0.680013    0.352496    0.000000
   183  Si    c     0.377123    0.522226    0.483120    0.000000
   184  Si    c     0.442983    0.700667    0.547512    0.000000
   185  Si    c     0.238982    0.001697    0.271255    0.000000
   186  Si    c     0.988901    0.080698    0.206444    0.000000
   187  Si    c     0.147455    0.271262    0.497210    0.000000
   188  Si    c     0.835416    0.566569    0.227343    0.000000
   189  Si    c     0.126489    0.807731    0.659243    0.000000
   190  Si    c     0.565556    0.627348    0.054495    0.000000
   191  Si    c     0.847005    0.253804    0.262366    0.000000
   192  Si    c     0.901221    0.274549    0.714567    0.000000
   193  Si    c     0.993840    0.246855    0.052070    0.000000
   194  Si    c     0.792092    0.393897    0.606485    0.000000
   195  Si    c     0.486959    0.109912    0.770476    0.000000
   196  Si    c     0.591116    0.890074    0.666137    0.000000
   197  Si    c     0.306662    0.773744    0.774242    0.000000
   198  Si    c     0.672690    0.811170    0.800194    0.000000
   199  Si    c     0.742995    0.389150    0.964008    0.000000
   200  Si    c     0.491039    0.109310    0.661833    0.000000
   201  Si    c     0.045984    0.275129    0.463229    0.000000
   202  Si    c     0.579398    0.790562    0.087634    0.000000
   203  Si    c     0.310411    0.226159    0.721200    0.000000
   204  Si    c     0.758476    0.792920    0.954142    0.000000
   205  Si    c     0.734697    0.310160    0.816365    0.000000
   206  Si    c     0.761587    0.829836    0.648638    0.000000
   207  Si    c     0.545859    0.237174    0.236323    0.000000
   208  Si    c     0.295625    0.345517    0.463149    0.000000
   209  Si    c     0.723991    0.384653    0.471610    0.000000
   210  Si    c     0.688918    0.981196    0.928591    0.000000
   211  Si    c     0.798570    0.778552    0.434585    0.000000
   212  Si    c     0.704999    0.124465    0.473080    0.000000
   213  Si    c     0.506451    0.600830    0.223292    0.000000
   214  Si    c     0.770362    0.848698    0.360431    0.000000
   215  Si    c     0.360857    0.986513    0.667827    0.000000
   216  Si    c     0.555338    0.524458    0.495010    0.000000
   217  Si    c     0.217217    0.051824    0.745699    0.000000
   218  Si    c     0.332542    0.756130    0.320522    0.000000
   219  Si    c     0.374970    0.020472    0.482325    0.000000
   220  Si    c     0.274231    0.325946    0.731597    0.000000
   221  Si    c     0.051365    0.172645    0.683583    0.000000
   222  Si    c     0.126840    0.140164    0.007457    0.000000
   223  Si    c     0.119989    0.886873    0.321256    0.000000
   224  Si    c     0.837628    0.314869    0.867026    0.000000
   225  Si    c     0.931773    0.881567    0.705520    0.000000
   226  Si    c     0.097064    0.617987    0.769051    0.000000
   227  Si    c     0.966100    0.673777    0.662422    0.000000
   228  Si    c     0.120004    0.929573    0.890560    0.000000
   229  Si    c     0.253341    0.715321    0.263893    0.000000
   230  Si    c     0.183286    0.168462    0.488062    0.000000
   231  Si    c     0.970161    0.569841    0.635698    0.000000
   232  Si    c     0.797947    0.575195    0.607309    0.000000
   233  Si    c     0.325346    0.606846    0.783892    0.000000
   234  Si    c     0.095539    0.632361    0.226495    0.000000
   235  Si    c     0.162216    0.101378    0.401805    0.000000
   236  Si    c     0.354526    0.554461    0.310265    0.000000
   237  Si    c     0.575906    0.501298    0.825902    0.000000
   238  Si    c     0.463654    0.304149    0.515167    0.000000
   239  Si    c     0.264396    0.244204    0.094820    0.000000
   240  Si    c     0.210526    0.443005    0.319802    0.000000
   241  Si    c     0.667101    0.663912    0.433088    0.000000
   242  Si    c     0.317738    0.191437    0.820433    0.000000
   243  Si    c     0.993455    0.233052    0.946153    0.000000
   244  Si    c     0.968682    0.342137    0.091858    0.000000
   245  Si    c     0.903963    0.228868    0.885403    0.000000
   246  Si    c     0.821783    0.735727    0.093513    0.000000
   247  Si    c     0.892798    0.297649    0.350719    0.000000
   248  Si    c     0.610966    0.155016    0.524900    0.000000
   249  Si    c     0.473250    0.598552    0.698730    0.000000
   250  Si    c     0.309202    0.264501    0.394195    0.000000
   251  Si    c     0.270845    0.197322    0.192971    0.000000
   252  Si    c     0.347369    0.180398    0.449695    0.000000
   253  Si    c     0.487343    0.129645    0.918865    0.000000
   254  Si    c     0.128323    0.251652    0.823818    0.000000
   255  Si    c     0.353359    0.887315    0.152744    0.000000
   256  Si    c     0.923667    0.684826    0.339394    0.000000
   257  Si    c     0.928442    0.848515    0.278831    0.000000
   258  Si    c     0.932902    0.244693    0.202407    0.000000
   259  Si    c     0.316418    0.027679    0.575254    0.000000
   260  Si    c     0.819549    0.845900    0.266225    0.000000
   261  Si    c     0.682884    0.056935    0.393659    0.000000
   262  Si    c     0.333651    0.082251    0.402627    0.000000
   263  Si    c     0.207152    0.513949    0.078413    0.000000
   264  Si    c     0.602996    0.122455    0.012431    0.000000
   265  Si    c     0.540288    0.040500    0.894494    0.000000
   266  Si    c     0.103960    0.642585    0.337610    0.000000
   267  Si    c     0.220204    0.948340    0.444595    0.000000
   268  Si    c     0.423023    0.677585    0.442774    0.000000
   269  Si    c     0.312239    0.129742    0.606483    0.000000
   270  Si    c     0.511789    0.990817    0.396992    0.000000
   271  Si    c     0.892612    0.433669    0.597163    0.000000
   272  Si    c     0.951795    0.050871    0.733274    0.000000
   273  Si    c     0.362324    0.882953    0.638986    0.000000
   274  Si    c     0.206962    0.493150    0.731079    0.000000
   275  Si    c     0.911159    0.027974    0.259977    0.000000
   276  Si    c     0.649609    0.053375    0.640674    0.000000
   277  Si    c     0.238189    0.289666    0.236351    0.000000
   278  Si    c     0.414258    0.543451    0.220441    0.000000
   279  Si    c     0.913342    0.641852    0.237717    0.000000
   280  Si    c     0.557572    0.587118    0.885412    0.000000
   281  Si    c     0.257795    0.889588    0.610739    0.000000
   282  Si    c     0.639848    0.706172    0.061572    0.000000
   283  Si    c     0.005452    0.026709    0.821218    0.000000
   284  Si    c     0.400767    0.329035    0.596234    0.000000
   285  Si    c     0.990586    0.506574    0.273385    0.000000
   286  Si    c     0.592160    0.356269    0.138884    0.000000
   287  Si    c     0.731766    0.987352    0.027507    0.000000
   288  Si    c     0.480451    0.780080    0.722914    0.000000
   289  Si    c     0.186934    0.339203    0.794806    0.000000
   290  Si    c     0.512660    0.423416    0.860984    0.000000
   291  Si    c     0.070143    0.040555    0.398526    0.000000
   292  Si    c     0.150902    0.286670    0.603726    0.000000
   293  Si    c     0.704940    0.752821    0.484970    0.000000
   294  Si    c     0.228376    0.659079    0.669104    0.000000
   295  Si    c     0.431255    0.289371    0.112860    0.000000
   296  Si    c     0.765414    0.014320    0.342581    0.000000
   297  Si    c     0.947933    0.905330    0.941656    0.000000
   298  Si    c     0.161242    0.736063    0.321542    0.000000
   299  Si    c     0.754151    0.952443    0.501423    0.000000
   300  Si    c     0.252617    0.761045    0.164228    0.000000
   301  Si    c     0.590269    0.337426    0.241321    0.000000
   302  Si    c     0.247032    0.643089    0.458181    0.000000
   303  Si    c     0.638570    0.593835    0.513120    0.000000
   304  Si    c     0.122983    0.511178    0.008967    0.000000
   305  Si    c     0.952175    0.813057    0.181029    0.000000
   306  Si    c     0.355482    0.428530    0.430705    0.000000
   307  Si    c     0.826409    0.322478    0.971460    0.000000
   308  Si    c     0.688243    0.232452    0.935363    0.000000
   309  Si    c     0.633497    0.077227    0.920150    0.000000
   310  Si    c     0.363828    0.754238    0.862522    0.000000
   311  Si    c     0.493045    0.277069    0.737413    0.000000
   312  Si    c     0.453991    0.309368    0.341493    0.000000
   313  Si    c     0.837845    0.000630    0.029634    0.000000
   314  Si    c     0.068421    0.105775    0.849304    0.000000
   315  Si    c     0.031113    0.487603    0.052262    0.000000
   316  Si    c     0.360181    0.283413    0.302277    0.000000
   317  Si    c     0.086439    0.604434    0.970077    0.000000
   318  Si    c     0.151116    0.175623    0.327054    0.000000
   319  Si    c     0.895430    0.062016    0.964150    0.000000
   320  Si    c     0.486404    0.236302    0.875453    0.000000
   321  Si    c     0.509974    0.420617    0.690478    0.000000
   322  Si    c     0.452264    0.210218    0.185628    0.000000
   323  Si    c     0.686454    0.441497    0.330121    0.000000
   324  Si    c     0.158295    0.460534    0.917400    0.000000
   325  Si    c     0.889831    0.693571    0.021837    0.000000
   326  Si    c     0.943424    0.101159    0.111137    0.000000
   327  Si    c     0.591460    0.142608    0.631552    0.000000
   328  Si    c     0.040310    0.137927    0.947952    0.000000
   329  Si    c     0.052442    0.874788    0.483766    0.000000
   330  Si    c     0.303546    0.301755    0.559654    0.000000
   331  Si    c     0.529184    0.811468    0.446819    0.000000
   332  Si    c     0.294007    0.575886    0.527198    0.000000
   333  Si    c     0.886912    0.808835    0.491363    0.000000
   334  Si    c     0.161302    0.294757    0.960086    0.000000
   335  Si    c     0.701551    0.441924    0.564653    0.000000
   336  Si    c     0.373136    0.265399    0.878426    0.000000
   337  Si    c     0.631949    0.877621    0.053845    0.000000
   338  Si    c     0.320015    0.013919    0.766508    0.000000
   339  Si    c     0.260849    0.608792    0.285370    0.000000
   340  Si    c     0.164139    0.458631    0.481139    0.000000
   341  Si    c     0.139601    0.361086    0.130031    0.000000
   342  Si    c     0.695027    0.189493    0.280603    0.000000
   343  Si    c     0.825519    0.547375    0.118057    0.000000
   344  Si    c     0.050450    0.910151    0.969961    0.000000
   345  Si    c     0.441550    0.434740    0.216686    0.000000
   346  Si    c     0.629028    0.534782    0.676042    0.000000
   347  Si    c     0.727960    0.682924    0.118599    0.000000
   348  Si    c     0.816687    0.681303    0.593356    0.000000
   349  Si    c     0.861793    0.551716    0.779794    0.000000
   350  Si    c     0.071088    0.948034    0.798329    0.000000
   351  Si    c     0.800057    0.911225    0.590164    0.000000
   352  Si    c     0.635560    0.745869    0.276328    0.000000
   353  Si    c     0.049001    0.821024    0.581995    0.000000
   354  Si    c     0.613994    0.904498    0.945557    0.000000
   355  Si    c     0.342327    0.018085    0.240844    0.000000
   356  Si    c     0.952306    0.211525    0.562634    0.000000
   357  Si    c     0.912695    0.202905    0.106748    0.000000
   358  Si    c     0.059593    0.974273    0.311389    0.000000
   359  Si    c     0.266858    0.791285    0.462689    0.000000
   360  Si    c     0.004576    0.082226    0.646241    0.000000
   361  Si    c     0.072443    0.012509    0.210510    0.000000
   362  Si    c     0.607090    0.962672    0.587864    0.000000
   363  Si    c     0.286869    0.171649    0.022022    0.000000
   364  Si    c     0.138428    0.975028    0.717110    0.000000
   365  Si    c     0.714335    0.130232    0.787359    0.000000
   366  Si    c     0.272492    0.789412    0.568725    0.000000
   367  Si    c     0.201196    0.856791    0.166923    0.000000
   368  Si    c     0.318248    0.454555    0.331792    0.000000
   369  Si    c     0.634347    0.052240    0.236235    0.000000
   370  Si    c     0.205502    0.691513    0.099182    0.000000
   371  Si    c     0.581812    0.970265    0.078546    0.000000
   372  Si    c     0.083266    0.821486    0.021762    0.000000
   373  Si    c     0.805972    0.236270    0.675742    0.000000
   374  Si    c     0.472694    0.891989    0.398374    0.000000
   375  Si    c     0.654348    0.046995    0.747182    0.000000
   376  Si    c     0.239707    0.145362    0.686164    0.000000
   377  Si    c     0.889898    0.536103    0.572871    0.000000
   378  Si    c     0.497910    0.133338    0.035083    0.000000
   379  Si    c     0.346331    0.443294    0.847592    0.000000
   380  Si    c     0.881033    0.731658    0.183243    0.000000
   381  Si    c     0.486753    0.682307    0.765374    0.000000
   382  Si    c     0.318847    0.359961    0.909904    0.000000
   383  Si    c     0.079952    0.456819    0.843882    0.000000
   384  Si    c     0.965654    0.447135    0.977852    0.000000
   385  Si    c     0.743132    0.394499    0.071692    0.000000
   386  Si    c     0.194092    0.884628    0.697638    0.000000
   387  Si    c     0.878414    0.070891    0.501922    0.000000
   388  Si    c     0.056305    0.784135    0.182563    0.000000
   389  Si    c     0.668449    0.729472    0.961142    0.000000
   390  Si    c     0.099349    0.207236    0.188201    0.000000
   391  Si    c     0.928003    0.995673    0.889782    0.000000
   392  Si    c     0.148623    0.185387    0.640442    0.000000
   393  Si    c     0.956183    0.948000    0.311697    0.000000
   394  Si    c     0.406673    0.659212    0.830516    0.000000
   395  Si    c     0.783627    0.127673    0.154097    0.000000
   396  Si    c     0.718157    0.961828    0.749363    0.000000
   397  Si    c     0.428891    0.847933    0.970938    0.000000
   398  Si    c     0.988796    0.254395    0.651654    0.000000
   399  Si    c     0.519218    0.955918    0.164545    0.000000
   400  Si    c     0.192084    0.359195    0.456791    0.000000
   401  Si    c     0.732531    0.896857    0.091088    0.000000
   402  Si    c     0.020903    0.689543    0.751324    0.000000
   403  Si    c     0.055710    0.992429    0.036342    0.000000
   404  Si    c     0.901044    0.898178    0.556005    0.000000
   405  Si    c     0.355323    0.727224    0.605212    0.000000
   406  Si    c     0.666349    0.827993    0.344700    0.000000
   407  Si    c     0.470333    0.112454    0.142328    0.000000
   408  Si    c     0.761562    0.837895    0.856948    0.000000
   409  Si    c     0.199890    0.601718    0.372049    0.000000
   410  Si    c     0.904458    0.710085    0.526724    0.000000
   411  Si    c     0.069431    0.355946    0.311772    0.000000
   412  Si    c     0.043093    0.192856    0.334943    0.000000
   413  Si    c     0.572036    0.583643    0.308157    0.000000
   414  Si    c     0.065785    0.648987    0.521372    0.000000
   415  Si    c     0.508958    0.776766    0.000760    0.000000
   416  Si    c     0.275192    0.517857    0.816097    0.000000
   417  Si    c     0.262833    0.875341    0.004729    0.000000
   418  Si    c     0.047607    0.658337    0.054843    0.000000
   419  Si    c     0.724427    0.282967    0.505200    0.000000
   420  Si    c     0.009888    0.179795    0.236710    0.000000
   421  Si    c     0.065415    0.298919    0.905184    0.000000
   422  Si    c     0.332466    0.327528    0.092895    0.000000
   423  Si    c     0.363945    0.557482    0.039289    0.000000
   424  Si    c     0.232577    0.538573    0.911425    0.000000
   425  Si    c     0.939147    0.981781    0.498161    0.000000
   426  Si    c     0.810130    0.099968    0.827967    0.000000
   427  Si    c     0.539334    0.517230    0.726754    0.000000
   428  Si    c     0.356205    0.386147    0.259194    0.000000
   429  Si    c     0.939237    0.208470    0.788843    0.000000
   430  Si    c     0.163979    0.673954    0.830990    0.000000
   431  Si    c     0.433596    0.882537    0.557351    0.000000
   432  Si    c     0.950852    0.833062    0.863705    0.000000
   433  Si    c     0.574012    0.752681    0.913773    0.000000
   434  Si    c     0.804628    0.741277    0.259567    0.000000
   435  Si    c     0.183324    0.807118    0.976995    0.000000
   436  Si    c     0.826537    0.652585    0.772949    0.000000
   437  Si    c     0.503513    0.469939    0.076993    0.000000
   438  Si    c     0.716118    0.692167    0.226716    0.000000
   439  Si    c     0.725057    0.743154    0.593268    0.000000
   440  Si    c     0.416472    0.577317    0.400418    0.000000
   441  Si    c     0.164347    0.768003    0.427034    0.000000
   442  Si    c     0.246018    0.598300    0.132959    0.000000
   443  Si    c     0.842194    0.996536    0.827735    0.000000
   444  Si    c     0.221115    0.019890    0.099929    0.000000
   445  Si    c     0.554046    0.791168    0.642120    0.000000
   446  Si    c     0.054124    0.538386    0.363185    0.000000
   447  Si    c     0.749712    0.484059    0.913050    0.000000
   448  Si    c     0.772942    0.056231    0.521275    0.000000
   449  Si    c     0.103783    0.695706    0.138548    0.000000
   450  Si    c     0.701714    0.551761    0.754374    0.000000
   451  Si    c     0.141571    0.873600    0.425011    0.000000
   452  Si    c     0.166701    0.282606    0.067526    0.000000
[...]
  1371      553.3731                0.0009859447             0.0000744415
  1372      553.5645                0.0009378360             0.0000707833
  1373      553.6661                0.0009692993             0.0000731438
  1374      554.0094                0.0010090277             0.0000760918
  1375      554.0189                0.0009536230             0.0000719124
  1376      554.2727                0.0009136224             0.0000688626
  1377      554.4473                0.0010694681             0.0000805823
  1378      554.5117                0.0007701218             0.0000580200
  1379      554.6565                0.0009563862             0.0000720330
  1380      554.9663                0.0010491197             0.0000789707
  1381      555.1341                0.0006610753             0.0000497453
  1382      555.2448                0.0010772144             0.0000810423
  1383      555.4318                0.0010333119             0.0000777116
  1384      555.5423                0.0010622462             0.0000798707
  1385      555.7077                0.0013059477             0.0000981636
  1386      555.8131                0.0008497455             0.0000638596
  1387      555.9604                0.0011073133             0.0000831927
  1388      556.2991                0.0008333200             0.0000625669
  1389      556.3487                0.0012186659             0.0000914906
  1390      556.4857                0.0009477216             0.0000711309
  1391      556.5443                0.0009138362             0.0000685800
  1392      556.9012                0.0007934819             0.0000595071
  1393      556.9633                0.0007616092             0.0000571100
  1394      557.1668                0.0009841489             0.0000737686
  1395      557.3900                0.0009818890             0.0000735676
  1396      557.4563                0.0009145467             0.0000685133
  1397      557.5504                0.0009276024             0.0000694789
  1398      557.6977                0.0009515053             0.0000712491
  1399      558.0958                0.0009097201             0.0000680681
  1400      558.2427                0.0009331919             0.0000698047
  1401      558.3432                0.0008928981             0.0000667777
  1402      558.5761                0.0009405671             0.0000703113
  1403      558.6533                0.0008477358             0.0000633623
  1404      558.9654                0.0008748710             0.0000653513
  1405      559.0381                0.0007556139             0.0000564351
  1406      559.1857                0.0007187113             0.0000536637
  1407      559.5046                0.0009133418             0.0000681542
  1408      559.6896                0.0008871561             0.0000661767
  1409      560.1055                0.0009055746             0.0000674965
  1410      560.1505                0.0009068835             0.0000675882
  1411      560.4099                0.0007573083             0.0000564124
  1412      560.4705                0.0009779347             0.0000728386
  1413      560.7711                0.0008300939             0.0000617912
  1414      560.8600                0.0010204023             0.0000759446
  1415      561.1668                0.0007575317             0.0000563468
  1416      561.4510                0.0008812932             0.0000655165
  1417      561.6189                0.0007995116             0.0000594174
  1418      561.7270                0.0006316746             0.0000469345
  1419      561.9657                0.0007504054             0.0000557307
  1420      562.1608                0.0008455069             0.0000627700
  1421      562.2471                0.0007865224             0.0000583812
  1422      562.5910                0.0009343920             0.0000693111
  1423      562.6456                0.0007640140             0.0000566668
  1424      562.8698                0.0008063446             0.0000597806
  1425      563.0654                0.0006170317             0.0000457280
  1426      563.1542                0.0007457966             0.0000552613
  1427      563.2806                0.0006688515             0.0000495478
  1428      563.5914                0.0006705600             0.0000496444
  1429      563.6686                0.0007304653             0.0000540714
  1430      563.9028                0.0006620358             0.0000489838
  1431      564.1276                0.0006898229             0.0000510175
  1432      564.1355                0.0007808515             0.0000577489
  1433      564.4155                0.0007710401             0.0000569924
  1434      564.6948                0.0006833398             0.0000504825
  1435      564.9713                0.0008520824             0.0000629148
  1436      565.1067                0.0005795129             0.0000427780
  1437      565.3857                0.0005793690             0.0000427442
  1438      565.5186                0.0008398446             0.0000619454
  1439      565.7495                0.0006877457             0.0000507041
  1440      566.1412                0.0005341455             0.0000393500
  1441      566.1872                0.0007219710             0.0000531822
  1442      566.4018                0.0005522233             0.0000406612
  1443      566.7458                0.0006453062             0.0000474833
  1444      566.9575                0.0006834676             0.0000502706
  1445      567.0739                0.0005914656             0.0000434938
  1446      567.1401                0.0006733074             0.0000495057
  1447      567.2846                0.0006458451             0.0000474731
  1448      567.6792                0.0006237324             0.0000458125
  1449      568.1182                0.0006286241             0.0000461323
  1450      568.3537                0.0006428628             0.0000471556
  1451      568.4655                0.0006859114             0.0000503024
  1452      568.5600                0.0007086599             0.0000519611
  1453      568.7290                0.0006968313             0.0000510769
  1454      568.8949                0.0005875642             0.0000430539
  1455      569.1629                0.0008195142             0.0000600186
  1456      569.5594                0.0005468483             0.0000400185
  1457      569.7737                0.0006663473             0.0000487430
  1458      570.1326                0.0007445578             0.0000544259
  1459      570.2116                0.0004526192             0.0000330806
  1460      570.4905                0.0006941491             0.0000507056
  1461      570.8038                0.0006283162             0.0000458686
  1462      570.8851                0.0006541260             0.0000477452
  1463      571.4767                0.0004551856             0.0000331859
  1464      571.6827                0.0005044812             0.0000367651
  1465      571.8453                0.0004905402             0.0000357377
  1466      571.9678                0.0005026921             0.0000366142
  1467      572.3095                0.0005014053             0.0000364960
  1468      572.7111                0.0006699657             0.0000487268
  1469      572.7737                0.0003698651             0.0000268971
  1470      573.2123                0.0005219185             0.0000379219
  1471      573.5763                0.0005013507             0.0000364015
  1472      574.0668                0.0004708922             0.0000341571
  1473      574.1829                0.0004155056             0.0000301326
  1474      574.5489                0.0004037045             0.0000292557
  1475      574.9071                0.0004298681             0.0000311298
  1476      575.4255                0.0003914730             0.0000283205
  1477      575.7237                0.0004960868             0.0000358675
  1478      576.2070                0.0004913325             0.0000354900
  1479      576.4129                0.0004035313             0.0000291361
  1480      576.8366                0.0003846169             0.0000277472
  1481      577.3258                0.0003728681             0.0000268737
  1482      577.7625                0.0002758705             0.0000198656
  1483      578.0333                0.0003630682             0.0000261308
  1484      578.1756                0.0004448194             0.0000320057
  1485      578.5627                0.0003727410             0.0000267990
  1486      578.6699                0.0003302022             0.0000237355
  1487      578.9739                0.0004307349             0.0000309434
  1488      579.5558                0.0003090930             0.0000221792
  1489      579.7551                0.0003591347             0.0000257599
  1490      580.1585                0.0002243475             0.0000160790
  1491      580.7104                0.0004174033             0.0000298827
  1492      581.0670                0.0002746713             0.0000196503
  1493      581.5085                0.0002998448             0.0000214325
  1494      581.9224                0.0001708268             0.0000122004
  1495      582.6196                0.0002292678             0.0000163516
  1496      582.9331                0.0001711301             0.0000121976
  1497      583.5595                0.0002776816             0.0000197675
  1498      584.2112                0.0001053017             0.0000074865
  1499      584.5353                0.0002212751             0.0000157215
  1500      585.9204                0.0002172644             0.0000153939
  1501      586.2201                0.0002716546             0.0000192362
  1502      586.8796                0.0002041284             0.0000144355
  1503      587.3777                0.0002833693             0.0000200193
  1504      588.1204                0.0003050738             0.0000215206
  1505      589.3394                0.0002059239             0.0000144909
  1506      589.7874                0.0003041070             0.0000213809
  1507      590.5883                0.0008870615             0.0000622664
  1508      591.0887                0.0002584245             0.0000181216
  1509      591.2657                0.0005850313             0.0000410098
  1510      592.3046                0.0001446239             0.0000101167
  1511      592.4749                0.0002458922             0.0000171948
  1512      593.3047                0.0002253320             0.0000157307
  1513      594.7923                0.0002386193             0.0000166084
  1514      595.0346                0.0001662416             0.0000115651
  1515      595.5005                0.0000768194             0.0000053391
  1516      595.9154                0.0001300608             0.0000090319
  1517      597.1662                0.0001091455             0.0000075603
  1518      600.3021                0.0001044550             0.0000071895
  1519      601.8759                0.0000785177             0.0000053870
  1520      604.1311                0.0000969131             0.0000066185
  1521      607.1141                0.0000080095             0.0000005437
  1522      607.3850                0.0000115922             0.0000007864
  1523      610.8273                0.0000437782             0.0000029489
  1524      611.5151                0.0000498881             0.0000033557
  1525      612.7597                0.0000023270             0.0000001561
  1526      615.8879                0.0000391018             0.0000026065
  1527      616.7205                0.0000271000             0.0000018033
  1528      621.8072                0.0000204486             0.0000013464
  1529      622.7495                0.0000029429             0.0000001934
  1530      624.7601                0.0000208558             0.0000013647
  1531      625.5062                0.0000204614             0.0000013368
  1532      628.6040                0.0000181008             0.0000011749
  1533      640.5521                0.0000095615             0.0000006051
  1534      648.0320                0.0000093421             0.0000005817
  1535      656.9889                0.0000000000             0.0000000000
  1536      671.8766                0.0000000000             0.0000000000
--------------------------------------------------------------------------------
  Thermal conductivity (Allen-Feldman) =     0.976852 W/(m.K) 
--------------------------------------------------------------------------------

--------------------------------------------------------------------------------
  Phonon properties (per mole of unit cells): Temperature =    300.000 K
--------------------------------------------------------------------------------
  Zero point energy            =       34.109205 eV
  Entropy                      =        0.096918 eV/K
                               =     9351.140021 J/(mol.K)
  Helmholtz free-energy        =    -2096.651235 eV
                               =  -202294.776211 kJmol-1
  Free energy (equipartition)  =    -2102.345210 eV
  - T*S       (equipartition)  =      -23.840850 eV
  Uvib        (equipartition)  =       39.631129 eV
  Mean kinetic energy          =       25.318660 eV
  Heat capacity - const volume =        0.101277 eV/K
                               =     9771.694286 J/(mol.K)
--------------------------------------------------------------------------------

  Phonon density of states : 

  Lorentzian broadening factor =     5.0000

--------------------------------------------------------------------------------
 Frequency (cm-1) Density of States                                             
--------------------------------------------------------------------------------
    0.00000 |*************************                                     0.022
   10.62270 |                                                              0.000
   21.24541 |                                                              0.000
   31.86811 |                                                              0.000
   42.49081 |                                                              0.000
   53.11351 |***                                                           0.003
   63.73622 |                                                              0.000
   74.35892 |******************                                            0.016
   84.98162 |*********                                                     0.008
   95.60432 |**************                                                0.012
  106.22703 |***********************                                       0.020
  116.84973 |****************************                                  0.024
  127.47243 |***************************                                   0.023
  138.09513 |*********************************                             0.028
  148.71784 |**************************                                    0.022
  159.34054 |********************************                              0.028
  169.96324 |****************************                                  0.024
  180.58594 |****************************                                  0.024
  191.20865 |*******************************                               0.027
  201.83135 |*****************************                                 0.025
  212.45405 |*********************                                         0.018
  223.07676 |******************                                            0.016
  233.69946 |*************************                                     0.021
  244.32216 |***                                                           0.003
  254.94486 |*************                                                 0.011
  265.56757 |****                                                          0.004
  276.19027 |****************                                              0.014
  286.81297 |*                                                             0.001
  297.43567 |**                                                            0.002
  308.05838 |*****                                                         0.005
  318.68108 |**********                                                    0.008
  329.30378 |***********************                                       0.019
  339.92648 |*********                                                     0.008
  350.54919 |*************************                                     0.021
  361.17189 |****************                                              0.014
  371.79459 |***************                                               0.013
  382.41729 |*********                                                     0.008
  393.04000 |******                                                        0.006
  403.66270 |********                                                      0.007
  414.28540 |********************                                          0.017
  424.90810 |*****************                                             0.014
  435.53081 |********************                                          0.017
  446.15351 |***********************************                           0.030
  456.77621 |*********************************                             0.028
  467.39892 |***************                                               0.013
  478.02162 |***************                                               0.013
  488.64432 |*********************                                         0.018
  499.26702 |******************************                                0.026
  509.88973 |***********************************************               0.040
  520.51243 |***********************************************               0.040
  531.13513 |********************************************                  0.038
  541.75783 |*************************************************             0.042
  552.38054 |************************************************************  0.050
  563.00324 |************************************************              0.041
  573.62594 |***********************                                       0.019
  584.24864 |*******************                                           0.016
  594.87135 |*********************                                         0.018
  605.49405 |                                                              0.001
  616.11675 |*******                                                       0.006
  626.73945 |                                                              0.001
  637.36216 |                                                              0.000
  647.98486 |************                                                  0.010
  658.60756 |                                                              0.000
  669.23027 |                                                              0.000
--------------------------------------------------------------------------------



  Time to end of optimisation =     106.8345 seconds


  Peak dynamic memory used =      88.63 MB 


  Timing analysis for GULP :

--------------------------------------------------------------------------------
  Task / Subroutine                                          Time (Seconds)
--------------------------------------------------------------------------------
  Calculation of real space energy and derivatives                0.3584
  Calculation of three-body energy and derivatives                2.5500
  Calculation of phonons                                         54.0372
  Calculation of third order force constants                     38.0518
--------------------------------------------------------------------------------
  Total CPU time                                                106.8346
--------------------------------------------------------------------------------


  Job Finished at 18:03.35 14th September  2021                               

