data.si (written by ASE) 

512 	 atoms 
1  atom types
0.0      21.889316999999998  xlo xhi
0.0      21.889316999999998  ylo yhi
0.0      21.889316999999998  zlo zhi


Atoms 

     1   1      9.8636042350000004            12.898078661      19.675788273999999
     2   1            21.610856188             1.608318919     0.35562205800000002
     3   1              1.98179697      4.5902319690000004      1.8057100479999999
     4   1      5.6808095740000004      20.096745211000002      2.2751398850000002
     5   1      5.2338087509999998             0.720904828      8.2616259900000006
     6   1      10.523155641000001     0.75957081400000004            10.702742231
     7   1            16.500469276            13.633042218      8.3216313759999991
     8   1      9.4656396869999995      10.559375621999999            19.724413538
     9   1            11.371367717      2.9171863509999998      10.362551016999999
    10   1      4.6959991780000001             11.22083464            12.208785186
    11   1      4.0967757450000004             0.157399292      20.161122621000001
    12   1      5.5184211550000004      14.952562925000001      16.824777273999999
    13   1      9.2952188699999994            20.909278635      2.4929638230000002
    14   1             19.27403443             6.032344589      11.357807236999999
    15   1             3.862994123            18.427039036            19.148181506
    16   1             3.816374894      1.7846579659999999      18.415820291999999
    17   1      20.051257270000001             2.582891499            12.931087091
    18   1      4.4590733910000004      4.2226027569999998            20.935939285
    19   1             18.71807828      17.676452305000002      17.839522165999998
    20   1      8.2577371209999999            17.266610772            15.152499079
    21   1      19.068966355000001      15.504060258000001      18.565215758000001
    22   1      18.275015931999999      2.9877295739999998            14.411191055
    23   1     0.38745999199999998            16.608662662      19.804348345000001
    24   1      8.5388953409999999            20.022144511      10.131804493000001
    25   1      15.301424496999999      5.8377552780000004      7.6853909820000004
    26   1      20.528985934000001      19.859852796999999             2.836588103
    27   1    0.060350563000000003      2.7432824880000002      8.9043720450000006
    28   1            15.561067568            12.333436739             21.43982398
    29   1      11.664673716999999      5.2311176960000001      7.4824012089999998
    30   1      7.5091732630000001            17.618687758     0.36470207100000002
    31   1             3.319883124     0.80020852799999997     0.42843826099999999
    32   1            14.302756406      1.0899818429999999      1.5545255630000001
    33   1            21.888998115      12.872541894999999      4.4706174929999998
    34   1            13.896564669            15.661053231            14.285737155
    35   1            10.559309459      15.496512603999999      4.6726574909999998
    36   1      12.249484793000001              7.22111825      12.145405246999999
    37   1      1.0831930009999999      15.324803938000001      9.1029387140000004
    38   1            10.196607732    0.091207777000000004            14.533132943
    39   1      2.8964651099999998            12.614760746            12.877762266
    40   1     0.42550811599999999      12.301175733999999            10.188061654
    41   1             13.52964959      4.9942597299999996     0.28639494199999999
    42   1      8.9173428169999998      5.5111551920000004            14.737363512
    43   1            13.167714937            13.576029839            13.367723235
    44   1      17.431273342000001      6.3467649750000001            12.773977385
    45   1            20.828350514      7.6694380249999998      4.3916320300000002
    46   1            10.672447705      8.3309573960000005      2.9317882119999998
    47   1            10.159157192      8.1836093769999998      16.973298097000001
    48   1      4.7384439980000002             5.716041766      7.4265118259999996
    49   1      15.723522987000001      5.0240567140000003      16.240833416000001
    50   1            21.685301485            12.637496402      2.0992719040000001
    51   1            14.173917029      5.8779005230000001             2.404310196
    52   1      6.7575847080000004             1.555494505      1.3769349470000001
    53   1      8.3353773679999996             1.091996553             3.099127894
    54   1      17.587632001999999      18.216276834999999     0.97366756600000004
    55   1      17.636044344999998      4.6286955880000002             1.905178743
    56   1      8.8937424069999995      18.728438432000001            18.904020822
    57   1            15.428923046      21.298742498999999             5.730988204
    58   1      17.233006727999999      4.7805027469999999      21.451858775000002
    59   1      3.6009416139999999             15.17793455            11.181137243
    60   1      18.945592738999999            15.377892031      14.992102792000001
    61   1            18.789964284      8.8019999589999998      4.4092272269999997
    62   1            21.559023728      17.002200249000001             7.543889922
    63   1      4.6402489080000002      8.0096965919999992      19.651635213999999
    64   1            15.904767327            14.198065564      20.051333232000001
    65   1             4.891895474      15.486718874999999      21.701555431999999
    66   1      7.7369656869999996             0.420295433      21.403469745999999
    67   1      11.408246435000001      20.579644947999999      16.065700753000002
    68   1      2.8472629540000001      6.6771490260000004      4.8366631560000002
    69   1            13.473025087      4.9673575230000004            15.331086467
    70   1      5.2064556660000001      7.5549256639999998            13.838787148
    71   1      9.0935904250000004      3.6425458800000001      13.352827055000001
    72   1            20.106579561            11.786194316      20.775915435000002
    73   1            20.525196636            14.183458063      9.6708478739999997
    74   1      9.7705994890000003      8.1145284180000008      9.4169191950000002
    75   1      9.4786946410000006      9.4890397370000006            13.513784615
    76   1      12.581780391000001      7.2100264940000001      14.482757103999999
    77   1      3.3925159109999998            10.311848502      5.1181803180000003
    78   1      15.173716413999999      7.6192103580000001             6.108052722
    79   1      18.885784784999998      8.8915957530000007      7.7399068120000001
    80   1      19.299421037999998      2.7599857270000001      16.507049413000001
    81   1            14.720313484             7.304405665      19.840947187000001
    82   1      8.7659995930000001            13.969350363      21.465108224000002
    83   1      7.6511184109999997      17.120906303000002      2.6664598210000001
    84   1      1.6925902289999999      17.400132898999999      6.2892463799999998
    85   1      13.874075142000001      2.4957762200000002      7.0692431100000004
    86   1      4.6314765400000004      3.9635855659999999            18.650557052
    87   1      4.0492487119999998      12.538409533999999      4.7747575969999998
    88   1      9.6216771439999995      4.3228776529999999            11.103540094
    89   1      12.867601714999999      9.9884154259999995             0.269689978
    90   1      8.3576392199999994      2.0501707489999998      6.6920398399999996
    91   1            12.853480097      18.425973552999999            18.807194357
    92   1      18.638532121000001      10.874830705999999            19.128124739
    93   1      1.1800299480000001            11.095833874      13.168628869999999
    94   1      20.289832991000001             9.659755058      9.4023040150000003
    95   1      1.0345116510000001      9.3644469570000002      5.0477485560000002
    96   1             8.085747091              12.5314064            15.189899569
    97   1      4.5807846980000004      9.5302412800000003      3.3092588680000001
    98   1      2.4572151980000001      2.7921562350000002      12.172250804000001
    99   1      20.867522688000001      9.4765556140000005            15.086562856
   100   1            10.579932548      1.3054282070000001      6.8829792449999996
   101   1      21.799135666000002      16.248714031999999             0.264005559
   102   1      5.3916734670000004      18.812046465000002      17.341668051999999
   103   1      17.976231909999999      15.420510972000001      7.8955146709999999
   104   1             15.97720597            11.823318838      11.653441491000001
   105   1      3.4968495850000001            12.734609828            15.133105359
   106   1    0.082169364999999994      6.3055858950000001      7.9390644999999997
   107   1      17.265786053999999      11.829163923999999      9.6489844710000003
   108   1      4.1444638559999998            16.113378293            13.289710265
   109   1      1.3060638840000001      9.2445460490000002            14.727728379
   110   1    0.037916700999999997            15.778848542      12.564563591000001
   111   1      20.181466951000001      8.2098762030000003      11.251814313000001
   112   1      7.0326104880000004      20.254957882999999      18.278207267999999
   113   1      10.962680106000001      21.197852359999999            12.495344441
   114   1      17.329087773000001      21.441426279000002      14.707252329999999
   115   1            12.153135466     0.58247169700000001      17.242799222999999
   116   1      2.2231680759999999      18.767973948000002      2.7000951880000001
   117   1            16.482385552      20.657273932999999      18.608567155999999
   118   1            17.115270438      7.1701890410000004      4.7910251480000001
   119   1      19.356867391000002      10.469881881999999      5.9620543829999999
   120   1      13.909223813000001      18.125209332000001      9.8278948820000007
   121   1      14.867260029000001               2.2743981      3.4243577109999999
   122   1      19.420327544999999      8.2289144329999999      16.335447909999999
   123   1      7.3037496590000002      8.7631013749999997     0.20058330399999999
   124   1            13.902676609      4.3458436989999996      4.1403100740000003
   125   1      19.731250831000001      8.7867837430000009            18.603953339
   126   1      19.280059645000001      21.292354574000001      15.962603208000001
   127   1            18.789395567      4.9823944439999996      9.3148982890000003
   128   1      5.4788252660000003      9.9122364449999996            14.022506711
   129   1      14.130333889999999      3.6208960389999998      18.812336415000001
   130   1      11.699946260999999      6.1019851750000003      21.117498707999999
   131   1      21.116715706000001             18.46443107      9.3558621819999992
   132   1      10.847864511999999            18.743994334      17.505383004999999
   133   1      11.756402597999999      2.9926218429999998      8.0255431060000006
   134   1     0.89370007500000004            20.700961354      2.8701383429999998
   135   1      8.1069415039999999             4.436599696      21.142595675999999
   136   1      17.938211418000002            15.387842631      20.565541469999999
   137   1      11.936048899999999      19.281721223000002      5.2195105599999998
   138   1      3.9436115350000001      13.842581382000001      20.291930193999999
   139   1            16.854231706      20.052334649999999      4.2847704320000002
   140   1     0.15154505900000001      18.920742104999999      17.041332500999999
   141   1            17.395393571      9.1423667230000003      15.524967634999999
   142   1            14.289345957            11.543375722      3.4043962350000001
   143   1      1.2295073750000001      7.2519098619999998      13.583381107999999
   144   1      6.0858328129999997      10.940044654999999             0.073141654
   145   1      10.361363497999999      14.974625357000001     0.92601809000000002
   146   1      2.6497227099999998     0.42178260699999998      12.230515992000001
   147   1      12.566029521999999      8.2428027020000005      20.511055559999999
   148   1      6.1512393960000002      20.910229747999999            20.390614477
   149   1            15.393645371      8.6832559069999995      16.565125548000001
   150   1      19.569230405999999      2.7554089190000002      8.9682106439999991
   151   1      11.116328920999999             8.530447358      6.2924159050000004
   152   1      6.3080927740000003             8.092187418      3.9475130630000002
   153   1     0.71383594900000003      11.936577139000001      17.773200982999999
   154   1      13.628588987000001      8.6148895280000009      8.9579503749999994
   155   1            17.426375818      3.4936839850000001      5.6309622030000002
   156   1     0.65044874799999997      3.8237236339999998             10.93195976
   157   1      18.475242221999999             3.215289743      20.125435457999998
   158   1      10.807193144999999      13.472720305999999      13.033467419000001
   159   1     0.52719269400000002      7.8758608690000003      11.468855599999999
   160   1      7.1646023940000001            15.693781925      20.993890050000001
   161   1             11.66153886            21.258185545      21.412169122000002
   162   1              4.89135499      21.339429299999999      12.026083420999999
   163   1      1.0502039460000001      8.9665060299999997      2.6128507750000001
   164   1      6.5543734320000002      18.804030231999999      6.9443025399999998
   165   1      18.633154436000002             1.092785449               2.6667432
   166   1            13.591013318      5.6674341110000004      11.062629272000001
   167   1      18.948652511999999            21.161745695      4.0503228419999999
   168   1      14.247218913999999      20.277741416000001            10.794245536
   169   1             0.013988094      12.949939735999999      19.753655289000001
   170   1      2.8446867650000001      9.2541343959999995            16.564996462
   171   1      7.0805305360000004      15.591779326999999      9.1702301110000004
   172   1            14.440359908             11.60276279      5.8529025800000003
   173   1             1.063475312            21.511268414      10.669785600000001
   174   1      7.8362007079999998            13.083418381      3.0792999569999999
   175   1      11.326863900999999            11.808334043      8.5760017449999992
   176   1      19.610069276000001            11.844781482            10.197955831
   177   1            19.932703127      20.466794927999999      8.9105337290000008
   178   1            12.340803797            17.082431432      4.3402805070000001
   179   1            19.401365661      19.761109192999999     0.72094938099999994
   180   1            10.855322655            17.386284649            12.019511731
   181   1      4.6346897460000003      19.640414322000002      5.8498390809999998
   182   1      12.984704110999999      14.885021634999999      7.7158853829999998
   183   1      8.2549600220000006      11.431180165000001            10.575175278
   184   1             9.696589629            15.337131609            11.984656668
   185   1              5.23115519    0.037148817000000001      5.9375884900000004
   186   1      21.646365635999999             1.766433736      4.5189114269999999
   187   1      3.2276994189999999      5.9377324089999997      10.883580376999999
   188   1            18.286681159            12.401797003      4.9763776039999996
   189   1             2.768762293            17.680678514            14.430372274
   190   1      12.379625369999999            13.732211092      1.1928477179999999
   191   1      18.540350025999999      5.5555889089999999             5.743016023
   192   1      19.727105228999999      6.0096873070000001      15.641374386000001
   193   1      21.754471672000001      5.4034943799999997             1.139783212
   194   1      17.338347321000001      8.6221397500000005      13.275547399000001
   195   1      10.659192129999999      2.4058991879999998      16.865184023000001
   196   1      12.939117084999999      19.483106284000002            14.581276053
   197   1      6.7126285909999996      16.936722630999999      16.947627220000001
   198   1      14.724721113999999      17.755962479000001      17.515704242999998
   199   1      16.263643391999999      8.5182287369999994      21.101478138000001
   200   1      10.748502612999999      2.3927307870000001      14.487077750999999
   201   1             1.006549337      6.0223840949999996      10.139762795999999
   202   1            12.682628398            17.304858311             1.918255759
   203   1      6.7946865939999999      4.9504700250000004            15.786584902
   204   1      16.602520224999999      17.356472156999999      20.885528312999998
   205   1            16.082021079      6.7891993299999998      17.869680305999999
   206   1      16.670616861999999      18.164549993000001      14.198250681999999
   207   1             11.94848389      5.1915852769999997      5.1729528409999999
   208   1      6.4710192920000003      7.5631318910000003            10.138017009
   209   1            15.847670138      8.4197834940000007            10.323215526
   210   1            15.079936497      21.477701811999999      20.326215190999999
   211   1      17.480162912000001      17.041959987999999      9.5127753960000003
   212   1      15.431939974000001      2.7244541990000002            10.355388944
   213   1            11.085874012            13.151757561      4.8877144960000001
   214   1            16.862700421      18.577421304000001             7.889588313
   215   1      7.8989054589999999      21.594088722999999            14.618274623
   216   1      12.155973726999999            11.480023887            10.835420229
   217   1      4.7547325479999998             1.134384842            16.322836447
   218   1               7.2791134            16.551172591      7.0160112139999997
   219   1      8.2078371079999997     0.44812728400000001            10.557769749
   220   1      6.0027283630000001      7.1347443000000004      16.014159802999998
   221   1             1.124345602      3.7790769850000001            14.963160385
   222   1      2.7764387859999999             3.068086058              0.16323519
   223   1      2.6264828150000001      19.413039571999999      7.0320805069999999
   224   1      18.335107606000001      6.8922589890000001      18.978618949000001
   225   1            20.395867267      19.296907006000001            15.443355035
   226   1             2.124672721            13.527315258      16.833995352999999
   227   1            21.147267694      14.748510872000001            14.499968117
   228   1      2.6267959589999998      20.347710588000002            19.493757536
   229   1      5.5454630910000002            15.657889488      5.7764443490000001
   230   1      4.0120023390000004      3.6875272990000001      10.683335573999999
   231   1      21.236160354999999             12.47343409            13.914991407
   232   1      17.466523552999998      12.590636589000001            13.293581581
   233   1      7.1216064880000003      13.283441916999999      17.158866965000001
   234   1             2.091288085            13.841947636      4.9578124770000001
   235   1      3.5508012610000002      2.2190976739999999             8.795226649
   236   1             7.760341801            12.136764908             6.791477317
   237   1            12.606181754            10.973068517            18.078429135
   238   1      10.149059600999999      6.6576112780000001            11.276648287
   239   1      5.7874420840000003      5.3454567500000003      2.0755531600000001
   240   1      4.6082689889999999      9.6970687780000002      7.0002495380000003
   241   1            14.602387383      14.532581566999999      9.4799911259999998
   242   1      6.9550654019999998      4.1904165510000002      17.958725127000001
   243   1      21.746054606000001      5.1013535399999999            20.710651877
   244   1      21.203782748999998      7.4891466290000004             2.010710328
   245   1      19.787126532999999      5.0097731679999997      19.380875637999999
   246   1            17.988269057      16.104563859999999      2.0469380739999998
   247   1            19.542732418      6.5153415250000002      7.6770073190000003
   248   1      13.373626700000001             3.393187722      11.489696542000001
   249   1      10.359113838000001      13.101895756999999      15.294719155999999
   250   1      6.7682186289999997      5.7897485030000002      8.6286565940000006
   251   1             5.928603367      4.3192528450000003      4.2240146989999996
   252   1      7.6036586670000004      3.9487806559999998      9.8435133389999994
   253   1            10.667606437             2.837839148      20.113322419999999
   254   1      2.8089053430000002      5.5084979709999997      18.032807080000001
   255   1      7.7347881020000004            19.422707437      3.3434688920000002
   256   1      20.218432665000002      14.990372799999999      7.4290976720000002
   257   1      20.322956010999999      18.573413804000001      6.1034192569999997
   258   1      20.420579460999999      5.3561551390000002      4.4305531729999998
   259   1      6.9261651710000001     0.60587168199999997            12.591914788
   260   1      17.939375955999999      18.516164073999999             5.827487659
   261   1      14.947870846000001      1.2462709030000001      8.6169223800000001
   262   1      7.3033921250000002      1.8004122520000001      8.8132232320000004
   263   1      4.5344212959999997            11.250003802             1.716402048
   264   1      13.199179690999999             2.680452485     0.27210881799999997
   265   1      11.826531383000001     0.88651530700000003      19.579856583000002
   266   1      2.2756253630000001      14.065738079999999      7.3900575689999997
   267   1      4.8201075900000001      20.758508257999999      9.7318745020000001
   268   1              9.25969248            14.831865353      9.6920236840000005
   269   1      6.8347035829999996      2.8399604279999999            13.275498482
   270   1      11.202720553000001            21.688299503      8.6898730129999997
   271   1            19.538655743      9.4927241430000002            13.071483202
   272   1             20.83413487      1.1135339479999999            16.050860901
   273   1      7.9310365149999997             19.32724653            13.986977411
   274   1             4.530252945      10.794728493999999      16.002822258999998
   275   1      19.944646220999999     0.61232178400000004      5.6907131069999997
   276   1      14.219506088999999             1.168348296            14.023916798
   277   1      5.2137993209999998              6.34058425      5.1735568150000004
   278   1      9.0678202330000008            11.895782635      4.8253082970000003
   279   1      19.992430080999998            14.049694426      5.2034713200000002
   280   1            12.204877754            12.851613214      19.381071596000002
   281   1      5.6429501230000003      19.472480447999999      13.368661621999999
   282   1      14.005839353000001            15.457617144      1.3477594660000001
   283   1     0.11934059399999999     0.58463776700000003      17.975908199999999
   284   1      8.7725142040000001      7.2023585700000003      13.051159740999999
   285   1      21.683262806999998            11.088554647      5.9842138269999996
   286   1            12.961978747      7.7984938770000003      3.0400851960000002
   287   1      16.017848300000001      21.612456503000001     0.60211130899999998
   288   1      10.516750013999999            17.075412434      15.824082326999999
   289   1      4.0918459179999997      7.4249252959999996      17.397754922000001
   290   1      11.221778434999999      9.2682882039999992      18.846360861000001
   291   1              1.53537313     0.88771586499999999      8.7234528020000006
   292   1      3.3031341900000002      6.2750162420000004      13.215142289999999
   293   1      15.430651987999999      16.478748336999999            10.615651222
   294   1      4.9989929259999997      14.426787727000001            14.646228395
   295   1      9.4398737799999992      6.3341218599999998             2.470424559
   296   1      16.754397923999999     0.31345581900000002      7.4988571679999998
   297   1      20.749597266999999      19.817061928000001      20.612195493000002
   298   1             3.529469653            16.111918782      7.0383274389999997
   299   1      16.507857556000001      20.848332317000001            10.975818877
   300   1      5.5296035970000004            16.658743328      3.5948396929999999
   301   1      12.920591935999999      7.3860338670000001      5.2823401219999999
   302   1      5.4073562199999996      14.076770380999999      10.029257895000001
   303   1            13.977861401            12.998648047            11.231842194
   304   1      2.6920215970000001      11.189328253999999     0.19628615899999999
   305   1            20.842454985      17.797264004999999      3.9625910000000002
   306   1      7.7812640589999997      9.3802197859999996      9.4278436689999996
   307   1            18.089536826      7.0588223069999998      21.264604970000001
   308   1            15.065165835             5.088219928      20.474465284000001
   309   1            13.866825514             1.690446831            20.141447608
   310   1             7.963939903      16.509759621000001      18.880029323999999
   311   1            10.792420296              6.06484763      16.141470047999999
   312   1      9.9375437899999994      6.7718587220000002      7.4750562770000002
   313   1      18.339845265000001    0.013780890000000001     0.64866378000000002
   314   1      1.4976929160000001      2.3153477759999999            18.590682722
   315   1     0.68104293100000002            10.673299444      1.1439834689999999
   316   1             7.884120759      6.2037202740000001             6.616642605
   317   1              1.89209947            13.230645399      21.234320188000002
   318   1      3.3078363930000001             3.844273303      7.1589821840000001
   319   1      19.600345307000001             1.357485072      21.104579828999999
   320   1      10.647050694000001      5.1724972300000003      19.163056725000001
   321   1      11.162986805999999      9.2070211099999995      15.114098587000001
   322   1      9.8997501050000007      4.6015310510000003      4.0632756069999996
   323   1      15.026018304999999      9.6640682469999994      7.2261166010000002
   324   1      3.4649643879999998      10.080769478000001      20.081254948000002
   325   1      19.477781049000001            15.181791531     0.47800859800000001
   326   1      20.650898515000002      2.2143088120000001      2.4327160999999999
   327   1            12.946656972      3.1215808680000001             13.82425327
   328   1     0.88234945200000003      3.0191316010000002      20.750010319000001
   329   1             1.147925493      19.148500035000001            10.589312321
   330   1      6.6444036649999996      6.6052093520000001      12.250452018000001
   331   1      11.583477846999999            17.762488755      9.7805534499999993
   332   1      6.4356069409999996            12.605756903      11.540001523999999
   333   1      19.413889358999999      17.704841459000001            10.755592622
   334   1      3.5307995430000001      6.4520281209999997            21.015619715
   335   1            15.356467752      9.6734117860000008      12.359865146000001
   336   1      8.1676953710000006      5.8094091949999997      19.228152259000002
   337   1             13.83292228      19.210521626999999      1.1786250250000001
   338   1             7.004914394     0.30468334699999999      16.778333277000002
   339   1      5.7097992309999999      13.326031651999999      6.2465523740000002
   340   1             3.592878587      10.039117259999999            10.531809935
   341   1      3.0557765830000001             7.903928584      2.8462817920000001
   342   1      15.213663282000001      4.1478700599999998      6.1422071029999996
   343   1      18.070047763000002            11.981663368      2.5841853490000002
   344   1             1.104307554      19.922592483999999            21.231784502
   345   1      9.6652190050000009      9.5161677109999996      4.7430999920000003
   346   1      13.768986097999999      11.706016720999999      14.798095010999999
   347   1             15.93454678      14.948734998000001      2.5960513590000001
   348   1      17.876714711999998      14.913260962000001      12.988167043000001
   349   1      18.864071839000001            12.076692516      17.069156033999999
   350   1      1.5560765190000001      20.751812916999999      17.474882408999999
   351   1      17.512704553999999      19.946086010999998      12.918292237999999
   352   1      13.911980531999999      16.326566803999999      6.0486379819999998
   353   1             1.072594147             17.97165326            12.739483535
   354   1      13.439913154999999            19.798835774            20.697598442
   355   1      7.4933123080000001     0.39587404399999998             5.271901347
   356   1            20.845323381      4.6301439110000002      12.315673711000001
   357   1            19.978272076      4.4414556059999999      2.3366430450000002
   358   1      1.3044560510000001      21.326160939000001      6.8160864879999998
   359   1      5.8413439839999999            17.320695976      10.127940709000001